/*--------------------------------*- C++ -*----------------------------------*\
  =========                 |
  \\      /  F ield         | OpenFOAM: The Open Source CFD Toolbox
   \\    /   O peration     | Website:  https://openfoam.org
    \\  /    A nd           | Version:  7
     \\/     M anipulation  |
\*---------------------------------------------------------------------------*/
FoamFile
{
    version     2.0;
    format      ascii;
    class       surfaceScalarField;
    location    "300";
    object      phi;
}
// * * * * * * * * * * * * * * * * * * * * * * * * * * * * * * * * * * * * * //

dimensions      [0 3 -1 0 0 0 0];

internalField   nonuniform List<scalar> 
127367
(
2.74007e-11
1.99439e-13
2.51198e-12
7.19407e-11
1.73545e-12
2.10573e-11
6.11941e-14
7.52438e-14
6.30126e-14
3.82509e-11
4.83175e-13
2.85936e-12
1.02349e-10
3.03468e-12
3.38893e-11
5.68349e-13
6.5499e-13
5.73323e-13
1.17405e-10
4.3829e-12
2.49091e-11
2.54282e-14
3.69766e-14
1.28482e-14
1.48906e-13
2.24733e-13
1.72563e-13
4.93595e-11
8.10249e-13
2.71275e-12
1.6649e-12
1.7634e-11
1.13163e-10
1.23494e-12
1.25649e-12
1.11162e-12
1.85245e-10
8.22432e-12
4.52135e-11
2.18243e-13
3.36833e-13
1.25358e-13
1.44183e-12
2.0534e-12
1.60992e-12
1.54267e-10
7.43336e-12
2.44237e-11
7.45455e-15
2.75011e-14
2.02755e-15
4.74128e-14
1.24218e-13
6.59651e-14
2.53837e-13
4.31328e-13
2.97668e-13
6.19429e-11
1.17677e-12
2.49817e-12
7.41898e-13
6.60008e-13
1.49794e-12
4.72357e-12
2.53957e-11
2.11842e-10
1.54257e-12
1.58983e-11
1.21029e-10
5.59287e-13
6.44472e-13
2.7098e-13
3.47592e-12
4.07616e-12
3.22571e-12
2.50913e-10
1.42735e-11
4.61491e-11
6.34525e-14
2.49564e-13
3.12819e-14
4.43203e-13
1.15896e-12
6.24033e-13
2.50207e-12
3.99237e-12
2.80271e-12
1.9347e-10
1.08516e-11
2.27047e-11
7.20775e-15
1.97231e-14
5.76308e-16
-7.58077e-16
9.56918e-14
3.13191e-14
6.18738e-14
2.61712e-13
1.73727e-13
3.6407e-13
6.98929e-13
4.11464e-13
7.61105e-11
1.56334e-12
2.18825e-12
3.77051e-13
1.7105e-13
7.53095e-13
2.44233e-12
1.94081e-12
4.47638e-12
6.99781e-13
6.29855e-13
1.71089e-12
8.33187e-12
2.66249e-11
2.91375e-10
4.45375e-12
2.35268e-11
2.32605e-10
3.23061e-12
3.21462e-11
1.32879e-10
1.20656e-13
4.8736e-13
9.99155e-14
1.20339e-12
2.30805e-12
1.27891e-12
6.28138e-12
8.02027e-12
5.69963e-12
3.15545e-10
2.10691e-11
4.3666e-11
5.94649e-14
1.81767e-13
1.55506e-14
-1.14753e-14
8.91468e-13
3.09501e-13
5.98246e-13
2.45705e-12
1.62301e-12
3.61828e-12
6.50767e-12
3.89243e-12
2.37358e-10
1.4454e-11
1.99946e-11
4.90316e-15
1.50209e-14
-1.95895e-16
1.24062e-15
7.30218e-14
2.20151e-14
-1.8759e-14
2.06017e-13
1.05785e-13
8.4366e-14
4.62296e-13
3.26015e-13
4.50247e-13
1.01456e-12
5.10026e-13
9.10005e-11
1.94198e-12
1.83444e-12
2.89882e-13
7.33201e-14
1.34512e-13
1.38411e-12
7.7945e-13
1.65321e-12
3.58882e-13
1.66853e-13
9.27153e-13
4.84015e-12
3.46522e-12
8.2487e-12
2.33194e-12
1.86476e-12
5.36331e-12
1.46982e-12
1.35097e-12
2.12073e-12
1.23986e-11
2.55398e-11
3.67136e-10
7.90963e-12
2.50473e-11
3.23987e-10
9.47012e-12
4.86785e-11
2.67896e-10
7.11687e-12
6.631e-11
1.47098e-10
1.26018e-13
3.59136e-13
6.1679e-14
-6.74307e-14
1.791e-12
6.72935e-13
1.68633e-12
4.95409e-12
3.25703e-12
9.25588e-12
1.31471e-11
7.98405e-12
3.87012e-10
2.82307e-11
3.87729e-11
4.03886e-14
1.39893e-13
6.39769e-15
3.40572e-15
6.84979e-13
2.1989e-13
-1.83528e-13
1.93265e-12
9.98689e-13
8.30383e-13
4.35204e-12
3.03267e-12
4.49359e-12
9.47534e-12
4.82777e-12
2.8325e-10
1.79787e-11
1.68017e-11
3.48543e-15
1.20324e-14
-4.93825e-16
-9.8953e-16
5.91907e-14
1.46326e-14
-1.54342e-14
1.63744e-13
7.97337e-14
-3.60306e-14
3.73429e-13
2.30697e-13
1.1564e-13
7.25495e-13
4.9946e-13
4.94186e-13
1.35163e-12
6.06227e-13
1.05346e-10
2.28559e-12
1.46233e-12
2.1495e-13
4.79425e-14
1.53014e-13
1.08154e-12
4.24124e-13
-1.1565e-13
2.76702e-13
7.55076e-14
1.41193e-13
2.99606e-12
1.96128e-12
2.3486e-12
1.3296e-12
7.52382e-13
2.07003e-12
7.72299e-13
3.64573e-13
1.26012e-12
7.96332e-12
4.88335e-12
1.2273e-11
4.6442e-12
3.34573e-12
1.00332e-11
4.99643e-12
4.04157e-12
7.14643e-12
3.21969e-12
3.06823e-12
2.94973e-12
1.66865e-11
2.28227e-11
4.50406e-10
1.18113e-11
2.41913e-11
4.09049e-10
1.69357e-11
5.28798e-11
3.81303e-10
2.13051e-11
1.03992e-10
3.22661e-10
1.62076e-11
1.34723e-10
1.57186e-10
8.07139e-14
2.81667e-13
3.715e-14
-1.45195e-14
1.38541e-12
4.85207e-13
-5.12372e-13
3.91869e-12
2.03719e-12
2.36273e-12
8.82578e-12
6.04599e-12
1.16038e-11
1.9193e-11
9.9116e-12
4.61102e-10
3.52338e-11
3.2722e-11
2.82922e-14
1.13335e-13
1.7563e-15
-1.57758e-14
5.57631e-13
1.48545e-13
-1.59664e-13
1.54295e-12
7.53844e-13
-3.52012e-13
3.51435e-12
2.15238e-12
1.14646e-12
6.83795e-12
4.63928e-12
4.93985e-12
1.26431e-11
5.71783e-12
3.27402e-10
2.11728e-11
1.34116e-11
2.02208e-15
1.04474e-14
-4.34837e-16
-1.58133e-15
5.04515e-14
9.83096e-15
-1.5859e-14
1.37473e-13
5.67718e-14
-3.48089e-14
3.07395e-13
1.80588e-13
-4.73537e-14
6.04933e-13
3.9863e-13
1.39995e-13
1.03428e-12
6.76845e-13
5.00317e-13
1.68248e-12
7.09065e-13
1.17461e-10
2.57159e-12
1.09587e-12
1.70654e-13
3.09497e-14
9.40663e-14
8.40294e-13
3.08237e-13
-3.35573e-14
2.06214e-13
5.02559e-14
1.73253e-13
2.38044e-12
1.23932e-12
-7.11937e-13
1.0404e-12
4.15434e-13
-1.66364e-13
5.94422e-13
1.74287e-13
1.44797e-13
5.35941e-12
3.62541e-12
3.30254e-12
2.88813e-12
1.88444e-12
2.97263e-12
2.88464e-12
1.63759e-12
2.90883e-12
1.77743e-12
8.47141e-13
1.85527e-12
1.16457e-11
6.06641e-12
1.54614e-11
7.66007e-12
4.7277e-12
1.50424e-11
1.00232e-11
7.29171e-12
1.36956e-11
1.13357e-11
9.37139e-12
1.08128e-11
7.32655e-12
7.2607e-12
4.57016e-12
2.08784e-11
1.93266e-11
5.36308e-10
1.59262e-11
2.16951e-11
5.01996e-10
2.53833e-11
5.14931e-11
4.83709e-10
3.85214e-11
1.16941e-10
4.75433e-10
5.0096e-11
2.24044e-10
3.92224e-10
3.61683e-11
2.56046e-10
1.55337e-10
5.63187e-14
2.31469e-13
2.21749e-14
-6.50797e-14
1.13733e-12
3.34543e-13
-4.40101e-13
3.14328e-12
1.54107e-12
-9.57128e-13
7.15717e-12
4.31093e-12
3.25382e-12
1.39058e-11
9.22588e-12
1.27846e-11
2.56338e-11
1.1667e-11
5.32213e-10
4.15728e-11
2.61776e-11
1.63806e-14
9.81774e-14
8.03804e-16
-1.99744e-14
4.76662e-13
1.01125e-13
-1.62031e-13
1.29886e-12
5.3882e-13
-3.53272e-13
2.90245e-12
1.68423e-12
-4.62788e-13
5.70211e-12
3.70369e-12
1.39143e-12
9.75082e-12
6.28013e-12
4.99461e-12
1.57478e-11
6.64862e-12
3.6457e-10
2.38271e-11
1.00576e-11
-5.42553e-15
1.4252e-16
1.57326e-14
-3.69053e-15
4.68153e-14
6.89357e-15
-1.4079e-14
1.21232e-13
4.01559e-14
-3.44006e-14
2.65448e-13
1.33126e-13
-5.18406e-14
5.14556e-13
3.22819e-13
-5.59328e-14
8.93069e-13
5.95795e-13
1.40477e-13
1.36526e-12
8.53614e-13
4.77489e-13
1.9873e-12
8.15919e-13
1.2562e-10
2.78291e-12
7.34368e-13
1.41386e-13
1.98981e-14
6.5693e-14
6.93842e-13
2.14842e-13
-1.02511e-13
1.64516e-13
3.31222e-14
1.02649e-13
1.91558e-12
9.38586e-13
-6.05579e-13
8.10729e-13
3.02884e-13
-5.65042e-14
4.46557e-13
1.17822e-13
2.03308e-13
4.36074e-12
2.59218e-12
-1.3113e-12
2.29695e-12
1.19612e-12
-9.01429e-13
2.25685e-12
9.18929e-13
-2.83201e-13
1.36051e-12
4.39013e-13
1.22725e-13
8.46093e-12
5.52155e-12
4.54251e-12
5.17528e-12
3.4765e-12
4.19529e-12
6.28845e-12
4.08261e-12
4.26238e-12
6.71535e-12
3.82124e-12
4.55516e-12
4.35724e-12
2.07903e-12
2.74559e-12
1.5563e-11
7.11067e-12
1.70558e-11
1.12165e-11
5.875e-12
1.90239e-11
1.65928e-11
1.03352e-11
2.07894e-11
2.30451e-11
1.70714e-11
2.1472e-11
2.70157e-11
2.30478e-11
1.8106e-11
1.71381e-11
1.69533e-11
6.64713e-12
2.46701e-11
1.5488e-11
6.18641e-10
1.99479e-11
1.84045e-11
5.97466e-10
3.4295e-11
4.63973e-11
5.9413e-10
5.80924e-11
1.1557e-10
6.10082e-10
9.21773e-11
2.65466e-10
6.09322e-10
1.17231e-10
4.61908e-10
4.45987e-10
7.4522e-11
4.49462e-10
1.37856e-10
3.15251e-14
2.00959e-13
1.53706e-14
-6.87151e-14
9.76988e-13
2.31264e-13
-4.51911e-13
2.65978e-12
1.10793e-12
-9.59388e-13
5.93327e-12
3.3711e-12
-1.25015e-12
1.16371e-11
7.36699e-12
3.93713e-12
1.98485e-11
1.24654e-11
1.28792e-11
3.19245e-11
1.34308e-11
5.91844e-10
4.68337e-11
1.96526e-11
-4.01242e-15
3.43869e-15
9.3329e-14
-3.39933e-14
4.36273e-13
7.14988e-14
-1.42413e-13
1.14613e-12
3.822e-13
-3.47866e-13
2.51136e-12
1.24339e-12
-5.25514e-13
4.86312e-12
2.99692e-12
-5.47843e-13
8.42279e-12
5.52367e-12
1.39259e-12
1.28657e-11
7.91013e-12
4.74885e-12
1.8601e-11
7.60347e-12
3.89458e-10
2.57848e-11
6.74358e-12
-3.60565e-14
5.87753e-15
7.71382e-14
-5.4309e-15
9.13187e-16
1.71094e-14
3.14243e-15
-1.66824e-14
1.16209e-13
2.86018e-14
-3.0677e-14
2.40056e-13
9.62363e-14
-5.28072e-14
4.55568e-13
2.44934e-13
-6.69752e-14
7.83636e-13
4.99241e-13
-7.33733e-14
1.22165e-12
8.12804e-13
1.07443e-13
1.70289e-12
1.03062e-12
4.2979e-13
2.25499e-12
9.14094e-13
1.28469e-10
2.90537e-12
3.62965e-13
1.23115e-13
1.39747e-14
3.58245e-14
5.97905e-13
1.49651e-13
-1.02525e-13
1.36854e-13
2.17135e-14
7.16457e-14
1.62687e-12
6.7724e-13
-6.25581e-13
6.71097e-13
2.12079e-13
-1.41825e-13
3.57967e-13
7.91569e-14
1.12093e-13
3.62457e-12
2.02579e-12
-1.31041e-12
1.85223e-12
9.06267e-13
-7.64228e-13
1.76626e-12
6.72208e-13
-1.20279e-13
1.03704e-12
3.02543e-13
2.24253e-13
7.10052e-12
4.40842e-12
-1.70595e-12
4.21451e-12
2.48857e-12
-1.64296e-12
5.00187e-12
2.60409e-12
-1.29999e-12
5.24686e-12
2.19818e-12
-5.73845e-13
3.31757e-12
1.1875e-12
-2.50823e-14
1.20847e-11
7.44871e-12
5.48836e-12
8.17678e-12
5.28945e-12
5.76931e-12
1.1289e-11
7.51433e-12
6.06742e-12
1.47233e-11
9.46188e-12
6.9436e-12
1.67453e-11
9.50374e-12
7.40098e-12
1.1015e-11
5.28735e-12
3.58146e-12
1.93793e-11
8.12765e-12
1.7153e-11
1.49978e-11
6.87256e-12
2.10083e-11
2.43428e-11
1.28486e-11
2.64627e-11
3.84122e-11
2.43281e-11
3.32131e-11
5.60907e-11
4.27328e-11
3.78737e-11
6.57086e-11
5.70461e-11
2.95356e-11
3.9326e-11
3.55076e-11
6.33568e-12
2.78139e-11
1.16373e-11
6.87547e-10
2.35835e-11
1.4763e-11
6.88844e-10
4.30015e-11
3.94486e-11
7.06624e-10
7.8755e-11
1.05055e-10
7.5107e-10
1.40476e-10
2.69411e-10
8.02034e-10
2.21671e-10
5.85358e-10
7.46566e-10
2.53224e-10
8.62185e-10
4.37412e-10
1.35128e-10
7.34612e-10
1.02442e-10
2.61688e-15
1.44688e-14
1.79864e-13
-9.18417e-14
8.85954e-13
1.6426e-13
-3.9206e-13
2.35169e-12
7.89014e-13
-9.54141e-13
5.15291e-12
2.49458e-12
-1.42797e-12
9.95774e-12
5.95297e-12
-1.47828e-12
1.71989e-11
1.09471e-11
3.93845e-12
2.61798e-11
1.56643e-11
1.21383e-11
3.76764e-11
1.51986e-11
6.31527e-10
5.07083e-11
1.31843e-11
-9.89928e-14
5.73832e-14
4.45267e-13
-4.63911e-15
3.78734e-15
8.87521e-14
-1.52316e-13
1.08043e-12
2.72831e-13
-3.07305e-13
2.27032e-12
8.99882e-13
-5.34317e-13
4.31283e-12
2.27521e-12
-6.795e-13
7.40753e-12
4.62473e-12
-7.25568e-13
1.15185e-11
7.52313e-12
1.05138e-12
1.60314e-11
9.5359e-12
4.24963e-12
2.10971e-11
8.47143e-12
3.97892e-10
2.69164e-11
3.33506e-12
-9.80077e-14
2.2249e-14
1.97848e-13
-5.58763e-14
6.8293e-15
8.66978e-14
4.04024e-14
1.59983e-15
3.99591e-16
1.74873e-14
-2.37609e-15
1.86175e-16
2.84964e-15
1.07146e-16
-3.56674e-14
2.35041e-13
6.92852e-14
-4.90219e-14
4.2054e-13
1.80295e-13
-7.03018e-14
7.09676e-13
3.89211e-13
-8.86037e-14
1.10393e-12
7.0558e-13
-1.14341e-13
1.58178e-12
1.04828e-12
3.85834e-14
2.04319e-12
1.20387e-12
3.55229e-13
2.47689e-12
9.87396e-13
1.25519e-10
2.92692e-12
-4.15948e-14
1.14283e-14
4.71515e-15
1.09591e-13
5.40533e-13
1.06361e-13
-1.26851e-13
1.19369e-13
1.52892e-14
3.80235e-14
1.44027e-12
4.83423e-13
-5.39227e-13
5.79236e-13
1.48196e-13
-1.37142e-13
2.99275e-13
5.2752e-14
7.75929e-14
3.15612e-12
1.50135e-12
-1.30979e-12
1.57558e-12
6.54994e-13
-7.91833e-13
1.46596e-12
4.73017e-13
-2.35368e-13
8.37567e-13
2.08381e-13
1.03204e-13
6.09009e-12
3.55836e-12
-1.95011e-12
3.50866e-12
1.94408e-12
-1.64236e-12
4.04533e-12
1.9739e-12
-1.10936e-12
4.13954e-12
1.61617e-12
-3.26566e-13
2.58403e-12
8.37971e-13
1.19847e-13
1.04973e-11
6.53275e-12
-2.01526e-12
6.86776e-12
4.22228e-12
-2.13062e-12
9.19621e-12
5.38526e-12
-2.33134e-12
1.17064e-11
6.08105e-12
-2.16592e-12
1.30625e-11
5.64957e-12
-1.3531e-12
8.44881e-12
3.2285e-12
-6.8739e-13
1.59347e-11
9.34257e-12
5.48925e-12
1.16811e-11
7.12939e-12
6.96516e-12
1.78507e-11
1.14185e-11
8.35735e-12
2.65109e-11
1.73474e-11
1.00833e-11
3.70482e-11
2.33378e-11
1.21522e-11
4.33646e-11
2.41973e-11
1.08352e-11
2.72046e-11
1.2789e-11
2.91405e-12
2.28558e-11
9.12707e-12
1.6097e-11
1.86777e-11
7.82842e-12
2.1103e-11
3.25795e-11
1.49951e-11
2.92839e-11
5.65584e-11
3.02715e-11
4.2716e-11
9.45768e-11
6.15061e-11
6.03389e-11
1.39945e-10
1.09332e-10
6.73142e-11
1.54624e-10
1.2756e-10
3.60833e-11
8.07379e-11
6.05105e-11
2.16063e-13
3.01266e-11
7.81e-12
7.33269e-10
2.65956e-11
1.10976e-11
7.6519e-10
5.0865e-11
3.1682e-11
8.13965e-10
9.89269e-11
8.97028e-11
8.92543e-10
1.91582e-10
2.48857e-10
9.93729e-10
3.43951e-10
6.20946e-10
1.02908e-09
4.94621e-10
1.16464e-09
7.90911e-10
4.73624e-10
1.43764e-09
3.43605e-10
2.07832e-10
1.09281e-09
5.44531e-11
-1.57379e-13
1.25065e-13
8.33749e-13
-1.75591e-15
7.74227e-15
1.69241e-13
-3.88946e-13
2.18864e-12
5.63947e-13
-8.35441e-13
4.66156e-12
1.80852e-12
-1.46311e-12
8.85734e-12
4.52379e-12
-1.85296e-12
1.51723e-11
9.15302e-12
-1.9677e-12
2.35024e-11
1.48666e-11
2.98559e-12
3.25746e-11
1.8832e-11
1.0709e-11
4.26745e-11
1.6773e-11
6.44538e-10
5.29444e-11
6.52461e-12
-3.015e-13
2.06806e-13
1.13451e-12
-7.36882e-14
3.03637e-14
4.36506e-13
1.47661e-15
3.07587e-15
8.58012e-14
-3.24701e-13
2.18366e-12
6.48527e-13
-4.89956e-13
3.97785e-12
1.67581e-12
-7.12486e-13
6.71879e-12
3.60617e-12
-9.00415e-13
1.04294e-11
6.52565e-12
-1.14475e-12
1.48982e-11
9.68677e-12
3.44845e-13
1.92058e-11
1.11209e-11
3.48339e-12
2.31549e-11
9.1049e-12
3.88432e-10
2.71115e-11
-3.80173e-13
-2.03375e-13
5.31356e-14
4.07531e-13
-1.60783e-13
2.29658e-14
2.24466e-13
1.1803e-13
-2.90358e-14
7.0837e-15
9.21301e-14
1.69204e-14
1.30495e-15
1.46541e-14
2.46304e-14
4.16347e-15
1.23587e-16
1.68796e-14
-3.67792e-15
4.47909e-17
3.02157e-15
-2.59258e-15
1.87259e-16
2.36972e-15
-2.4496e-15
-5.97668e-14
4.18249e-13
1.31349e-13
-6.81357e-14
6.66505e-13
2.91614e-13
-9.26289e-14
1.02057e-12
5.65227e-13
-1.31225e-13
1.47207e-12
9.46538e-13
-1.91808e-13
1.97993e-12
1.30338e-12
-6.25706e-14
2.38572e-12
1.35765e-12
2.65765e-13
2.63197e-12
1.01662e-12
1.17293e-10
2.83622e-12
-5.0422e-13
7.91379e-14
-1.85655e-13
5.01103e-13
1.20563e-14
5.7301e-15
1.063e-13
5.16819e-15
-9.63562e-16
1.03632e-13
1.33343e-12
3.45549e-13
-5.21291e-13
5.23039e-13
1.05342e-13
-1.60702e-13
2.61616e-13
3.72055e-14
3.84833e-14
2.85636e-12
1.08958e-12
-1.14183e-12
1.3958e-12
4.68034e-13
-6.79278e-13
1.26789e-12
3.31661e-13
-2.17977e-13
7.06137e-13
1.4163e-13
6.74036e-14
5.42846e-12
2.70576e-12
-2.00588e-12
3.05876e-12
1.44178e-12
-1.64667e-12
3.44715e-12
1.42925e-12
-1.14987e-12
3.45109e-12
1.14586e-12
-4.8437e-13
2.1127e-12
5.92579e-13
-1.802e-14
9.28083e-12
5.45625e-12
-2.53432e-12
5.8985e-12
3.40609e-12
-2.44285e-12
7.67313e-12
4.20474e-12
-2.3501e-12
9.52025e-12
4.61196e-12
-1.91898e-12
1.0446e-11
4.18359e-12
-1.0556e-12
6.75292e-12
2.35008e-12
-5.34311e-13
1.43359e-11
8.85168e-12
-2.6878e-12
1.01552e-11
6.24801e-12
-2.51505e-12
1.50008e-11
9.11138e-12
-3.00689e-12
2.16007e-11
1.24518e-11
-3.79173e-12
2.94472e-11
1.51469e-11
-4.06227e-12
3.39756e-11
1.48262e-11
-3.56171e-12
2.14245e-11
7.7884e-12
-2.69563e-12
1.98057e-11
1.12074e-11
4.17093e-12
1.5399e-11
8.93305e-12
6.96438e-12
2.55044e-11
1.53728e-11
1.00859e-11
4.19755e-11
2.62987e-11
1.3989e-11
6.70456e-11
4.25269e-11
1.84255e-11
9.72671e-11
5.89973e-11
2.00307e-11
1.09675e-10
5.80113e-11
1.05617e-11
6.03416e-11
2.52582e-11
-1.94766e-12
2.58613e-11
1.00012e-11
1.41001e-11
2.2024e-11
8.75745e-12
1.97396e-11
4.05856e-11
1.70103e-11
2.93673e-11
7.58333e-11
3.5189e-11
4.746e-11
1.40136e-10
7.67094e-11
7.89593e-11
2.39733e-10
1.60506e-10
1.13383e-10
3.36946e-10
2.57123e-10
9.54273e-11
3.22236e-10
2.28181e-10
1.98004e-11
1.35957e-10
8.13903e-11
-9.29884e-12
3.14591e-11
3.86641e-12
7.48025e-10
2.88092e-11
7.44969e-12
8.15719e-10
5.73721e-11
2.38303e-11
9.03347e-10
1.17115e-10
7.22118e-11
1.02654e-09
2.41427e-10
2.14237e-10
1.18084e-09
4.74252e-10
5.89659e-10
1.29677e-09
7.86655e-10
1.30746e-09
1.1577e-09
9.48759e-10
2.00877e-09
6.57033e-10
7.39975e-10
2.13403e-09
1.8819e-10
2.67847e-10
1.42072e-09
7.24147e-12
-5.13163e-13
4.17e-13
2.10838e-12
-8.95672e-14
5.42823e-14
8.03091e-13
2.74217e-15
7.92832e-15
1.60049e-13
-8.22888e-13
4.41996e-12
1.30374e-12
-1.32915e-12
8.17004e-12
3.33503e-12
-1.95376e-12
1.37978e-11
7.13955e-12
-2.46558e-12
2.13412e-11
1.28795e-11
-3.12886e-12
3.03377e-11
1.90876e-11
1.02103e-12
3.89326e-11
2.18977e-11
8.5701e-12
4.67589e-11
1.78719e-11
6.28689e-10
5.33259e-11
-7.49679e-13
-6.31536e-13
4.87632e-13
2.331e-12
-2.21203e-13
1.02304e-13
1.12299e-12
-5.78738e-14
3.33741e-14
4.35047e-13
6.46234e-15
2.33644e-15
8.11678e-14
-5.39689e-13
3.88479e-12
1.22152e-12
-6.79893e-13
6.30342e-12
2.70296e-12
-9.40418e-13
9.65606e-12
5.22737e-12
-1.33486e-12
1.38886e-11
8.73892e-12
-1.93552e-12
1.86135e-11
1.20228e-11
-6.88285e-13
2.23808e-11
1.25208e-11
2.57625e-12
2.45786e-11
9.32742e-12
3.62857e-10
2.62655e-11
-4.62618e-12
-3.63614e-13
1.00864e-13
7.34136e-13
-3.41036e-13
5.37067e-14
4.65018e-13
2.52811e-13
-9.62263e-14
2.62558e-14
2.41693e-13
5.98277e-14
4.34761e-15
3.80893e-14
7.68998e-14
-2.02402e-14
7.42602e-15
9.2735e-14
1.23342e-14
1.27348e-15
1.62943e-14
1.40516e-14
1.23426e-15
1.24282e-14
1.11555e-14
6.57251e-15
-1.90779e-16
1.55714e-14
-5.07172e-15
-1.8656e-17
2.99114e-15
-3.62857e-15
1.36418e-17
2.62149e-15
-2.85783e-15
1.74482e-16
1.68091e-15
-4.30483e-15
-8.8437e-14
6.71159e-13
2.1514e-13
-9.1597e-14
9.7251e-13
4.31284e-13
-1.32965e-13
1.38865e-12
7.81634e-13
-2.10716e-13
1.90395e-12
1.23325e-12
-3.13116e-13
2.43223e-12
1.57002e-12
-1.81571e-13
2.71174e-12
1.45949e-12
1.91703e-13
2.68768e-12
9.73504e-13
1.05158e-10
2.62738e-12
-1.0296e-12
2.52526e-13
-6.15125e-13
1.26201e-12
7.76815e-14
-2.11477e-13
4.83239e-13
3.2652e-14
-9.89343e-14
4.82988e-13
2.84557e-14
5.39959e-15
2.33493e-13
5.20283e-15
-5.59889e-16
1.00695e-13
5.53334e-15
3.09101e-15
9.77511e-14
2.69168e-12
7.85266e-13
-1.09791e-12
1.28938e-12
3.34527e-13
-6.44056e-13
1.14365e-12
2.35769e-13
-2.3502e-13
6.19923e-13
1.00013e-13
2.46899e-14
5.00725e-12
1.99583e-12
-1.81417e-12
2.76884e-12
1.04684e-12
-1.4307e-12
3.05653e-12
1.0225e-12
-9.79477e-13
2.9959e-12
8.07533e-13
-4.28674e-13
1.80346e-12
4.11246e-13
-3.45844e-14
8.45563e-12
4.25682e-12
-2.67959e-12
5.2627e-12
2.59068e-12
-2.51897e-12
6.69795e-12
3.12074e-12
-2.36296e-12
8.13684e-12
3.34931e-12
-1.96987e-12
8.77509e-12
2.99623e-12
-1.21711e-12
5.62877e-12
1.69353e-12
-5.87359e-13
1.30444e-11
7.66098e-12
-3.37879e-12
8.98935e-12
5.2154e-12
-3.17773e-12
1.29074e-11
7.34443e-12
-3.48911e-12
1.80988e-11
9.71141e-12
-3.9476e-12
2.41796e-11
1.14924e-11
-3.96006e-12
2.77006e-11
1.10755e-11
-3.50586e-12
1.76341e-11
5.82571e-12
-2.56956e-12
1.84773e-11
1.13393e-11
-4.28816e-12
1.38647e-11
8.45578e-12
-3.36128e-12
2.21875e-11
1.34588e-11
-3.5455e-12
3.52989e-11
2.09642e-11
-4.84272e-12
5.4662e-11
3.0559e-11
-6.82007e-12
7.76286e-11
3.85904e-11
-8.18796e-12
8.76678e-11
3.57026e-11
-9.46856e-12
4.95647e-11
1.4705e-11
-6.62362e-12
2.36299e-11
1.30017e-11
1.45825e-12
1.91283e-11
1.07038e-11
5.2959e-12
3.36096e-11
1.9237e-11
1.00764e-11
5.99814e-11
3.5328e-11
1.69087e-11
1.06385e-10
6.41985e-11
2.60689e-11
1.77468e-10
1.06667e-10
3.30208e-11
2.49922e-10
1.41068e-10
2.3998e-11
2.47199e-10
1.14749e-10
-3.8914e-12
1.07949e-10
3.63748e-11
-1.03139e-11
2.83012e-11
1.05865e-11
1.11427e-11
2.49095e-11
9.56156e-12
1.71957e-11
4.78508e-11
1.89403e-11
2.7331e-11
9.45313e-11
3.96303e-11
4.75099e-11
1.88501e-10
8.86334e-11
8.84624e-11
3.58513e-10
2.01596e-10
1.53609e-10
5.87178e-10
3.91773e-10
1.7821e-10
7.13136e-10
4.82584e-10
7.66475e-11
5.46137e-10
3.12865e-10
-1.7835e-11
1.82204e-10
9.22249e-11
-1.58796e-11
3.16838e-11
-4.47894e-13
7.2936e-10
3.00826e-11
3.68882e-12
8.31804e-10
6.21469e-11
1.6003e-11
9.62212e-10
1.3213e-10
5.43779e-11
1.13736e-09
2.86234e-10
1.73248e-10
1.35484e-09
6.01355e-10
5.15639e-10
1.54632e-09
1.10336e-09
1.29432e-09
1.50786e-09
1.54244e-09
2.35209e-09
1.01487e-09
1.50344e-09
2.9965e-09
3.72074e-10
9.59709e-10
2.75394e-09
2.55196e-11
2.90332e-10
1.55817e-09
-3.55672e-11
-1.07745e-12
9.61346e-13
4.32154e-12
-2.83699e-13
1.7587e-13
2.04929e-12
-8.54906e-14
6.0387e-14
7.78251e-13
8.41178e-15
7.72882e-15
1.50373e-13
-1.35706e-12
7.86065e-12
2.43052e-12
-1.84396e-12
1.29426e-11
5.35433e-12
-2.58364e-12
1.98072e-11
1.03168e-11
-3.66663e-12
2.83525e-11
1.71964e-11
-5.31099e-12
3.77794e-11
2.36163e-11
-1.83508e-12
4.52248e-11
2.45788e-11
6.08741e-12
4.95414e-11
1.81452e-11
5.87098e-10
5.16464e-11
-9.0534e-12
-1.10662e-12
9.21444e-13
4.19398e-12
-4.67963e-13
2.38646e-13
2.32159e-12
-1.89519e-13
1.17163e-13
1.1325e-12
-4.47108e-14
3.56635e-14
4.26193e-13
1.10465e-14
1.42469e-15
7.52711e-14
-7.90021e-13
6.23179e-12
1.99476e-12
-9.14002e-13
9.19174e-12
3.98972e-12
-1.3503e-12
1.31192e-11
7.21418e-12
-2.14335e-12
1.79228e-11
1.13623e-11
-3.1681e-12
2.28042e-11
1.44545e-11
-1.89851e-12
2.5378e-11
1.34385e-11
1.83498e-12
2.50675e-11
8.8823e-12
3.25482e-10
2.43228e-11
-9.43297e-12
-5.82839e-13
1.66221e-13
1.18865e-12
-6.19159e-13
1.01779e-13
8.41285e-13
4.6394e-13
-2.10834e-13
6.30616e-14
5.04703e-13
1.34344e-13
1.016e-14
7.90122e-14
1.67988e-13
-7.63256e-14
2.91314e-14
2.46839e-13
4.94761e-14
4.86833e-15
4.29635e-14
5.13587e-14
4.08717e-15
3.24333e-14
4.1614e-14
-1.29416e-14
7.65641e-15
8.9847e-14
7.9838e-15
1.31767e-15
1.68629e-14
1.04295e-14
1.14224e-15
1.44969e-14
1.08545e-14
1.07944e-15
9.24269e-15
1.008e-15
7.91629e-15
-4.2638e-16
1.38712e-14
-5.78777e-15
-9.01667e-17
2.74071e-15
-4.7308e-15
-5.69206e-17
2.63483e-15
-3.58476e-15
-2.81467e-17
1.9798e-15
-3.12841e-15
1.47123e-16
8.90777e-16
-5.34254e-15
-1.24529e-13
9.89708e-13
3.22483e-13
-1.29527e-13
1.34052e-12
6.08954e-13
-2.09414e-13
1.83716e-12
1.05787e-12
-3.44073e-13
2.43648e-12
1.57309e-12
-4.75746e-13
2.94195e-12
1.81557e-12
-2.96921e-13
2.97907e-12
1.46506e-12
1.60765e-13
2.60854e-12
8.31615e-13
9.08291e-11
2.30789e-12
-1.58e-12
5.73674e-13
-1.29025e-12
2.58333e-12
2.43273e-13
-7.06181e-13
1.21485e-12
1.02617e-13
-3.18284e-13
1.22663e-12
1.72283e-13
-2.664e-13
1.05475e-12
3.15096e-14
-1.07727e-13
4.65726e-13
3.63355e-14
-9.84658e-14
4.65163e-13
7.39322e-14
-4.70449e-15
5.56102e-13
1.18258e-14
-4.19809e-16
2.21529e-13
5.63854e-15
3.1262e-15
9.50227e-14
5.72236e-15
8.60378e-15
9.18382e-14
4.78612e-12
1.45384e-12
-1.8045e-12
2.60222e-12
7.54319e-13
-1.35108e-12
2.81701e-12
7.30707e-13
-8.99459e-13
2.70086e-12
5.73901e-13
-4.13862e-13
1.59557e-12
2.90526e-13
-5.79291e-14
7.93023e-12
3.19341e-12
-2.51613e-12
4.85429e-12
1.9114e-12
-2.27031e-12
6.06497e-12
2.26707e-12
-2.04226e-12
7.22737e-12
2.40058e-12
-1.66303e-12
7.66627e-12
2.12572e-12
-1.0343e-12
4.88414e-12
1.19631e-12
-4.8624e-13
1.21275e-11
6.13624e-12
-3.54613e-12
8.19706e-12
4.06919e-12
-3.36578e-12
1.15286e-11
5.58781e-12
-3.60719e-12
1.58341e-11
7.21653e-12
-3.96554e-12
2.07747e-11
8.38154e-12
-3.95027e-12
2.35719e-11
8.01623e-12
-3.41105e-12
1.50803e-11
4.22809e-12
-2.26158e-12
1.72993e-11
1.02049e-11
-5.03246e-12
1.26297e-11
7.31436e-12
-4.24265e-12
1.96717e-11
1.12259e-11
-4.54344e-12
3.04771e-11
1.68731e-11
-5.82885e-12
4.61393e-11
2.37774e-11
-7.70986e-12
6.46895e-11
2.9255e-11
-9.20029e-12
7.32741e-11
2.67815e-11
-1.00678e-11
4.22127e-11
1.0882e-11
-6.09953e-12
2.29534e-11
1.39951e-11
-7.29023e-12
1.78568e-11
1.08192e-11
-5.38004e-12
3.02821e-11
1.81869e-11
-4.76185e-12
5.22348e-11
3.08652e-11
-5.69985e-12
8.95973e-11
5.10308e-11
-8.52684e-12
1.45346e-10
7.64397e-11
-1.25471e-11
2.03077e-10
9.18708e-11
-1.75107e-11
2.05306e-10
6.91364e-11
-2.20076e-11
9.24211e-11
2.05993e-11
-1.16948e-11
2.73842e-11
1.45583e-11
-2.47462e-12
2.28004e-11
1.24023e-11
1.86881e-12
4.17161e-11
2.30164e-11
7.65131e-12
7.89849e-11
4.40973e-11
1.68537e-11
1.52037e-10
8.58685e-11
3.17024e-11
2.82613e-10
1.59887e-10
4.87492e-11
4.60827e-10
2.53661e-10
4.67799e-11
5.69692e-10
2.80628e-10
1.56441e-12
4.45565e-10
1.6653e-10
-3.3474e-11
1.48712e-10
3.94483e-11
-1.62706e-11
2.99437e-11
1.06747e-11
7.73947e-12
2.72436e-11
1.00867e-11
1.34567e-11
5.40956e-11
2.05869e-11
2.36005e-11
1.11436e-10
4.37571e-11
4.38987e-11
2.35264e-10
9.86219e-11
8.84913e-11
4.84572e-10
2.31351e-10
1.7549e-10
8.87817e-10
5.01994e-10
2.58928e-10
1.25998e-09
7.69842e-10
1.73418e-10
1.21759e-09
6.78485e-10
-3.12252e-12
7.33598e-10
3.52726e-10
-5.22247e-11
1.97731e-10
9.54747e-11
-1.87533e-11
3.0678e-11
-5.36772e-12
6.81006e-10
3.02944e-11
-4.28051e-13
8.10795e-10
6.48867e-11
7.92634e-12
9.80451e-10
1.43115e-10
3.65434e-11
1.20962e-09
3.2306e-10
1.30753e-10
1.49668e-09
7.15114e-10
4.20664e-10
1.76898e-09
1.41428e-09
1.16338e-09
1.82038e-09
2.20144e-09
2.42604e-09
1.37602e-09
2.47757e-09
3.5546e-09
5.96021e-10
1.96175e-09
3.83989e-09
5.10386e-11
1.04185e-09
3.00929e-09
-1.23911e-10
2.65011e-10
1.41996e-09
-7.91721e-11
-1.85478e-12
1.80087e-12
7.76929e-12
-6.00314e-13
4.04248e-13
4.22552e-12
-2.85542e-13
1.98923e-13
2.00678e-12
-7.55978e-14
6.56218e-14
7.51247e-13
1.43722e-14
7.23007e-15
1.39819e-13
-1.96963e-12
1.26031e-11
3.94962e-12
-2.48e-12
1.88505e-11
7.87699e-12
-3.71377e-12
2.68427e-11
1.41902e-11
-5.88835e-12
3.64446e-11
2.22763e-11
-8.68912e-12
4.60701e-11
2.8292e-11
-5.16104e-12
5.10858e-11
2.6297e-11
4.0942e-12
5.043e-11
1.71025e-11
5.26874e-10
4.77919e-11
-1.8397e-11
-1.73084e-12
1.51512e-12
6.78612e-12
-8.34499e-13
4.51447e-13
4.19653e-12
-4.08045e-13
2.77017e-13
2.35895e-12
-1.63017e-13
1.30319e-13
1.12453e-12
-3.36129e-14
3.75065e-14
4.10784e-13
1.45117e-14
6.90254e-16
6.79875e-14
-1.1032e-12
9.18145e-12
2.98374e-12
-1.29588e-12
1.26541e-11
5.62121e-12
-2.12384e-12
1.73125e-11
9.73905e-12
-3.49425e-12
2.28601e-11
1.44565e-11
-4.8134e-12
2.74875e-11
1.66826e-11
-3.06496e-12
2.7804e-11
1.347e-11
1.53289e-12
2.4296e-11
7.53703e-12
2.81511e-10
2.13511e-11
-1.4436e-11
-8.60012e-13
2.51164e-13
1.76479e-12
-1.02003e-12
1.68512e-13
1.36599e-12
7.75958e-13
-3.87057e-13
1.20913e-13
9.1829e-13
2.52201e-13
1.92603e-14
1.43027e-13
3.11815e-13
-1.71619e-13
7.11425e-14
5.20115e-13
1.14196e-13
1.17932e-14
8.98637e-14
1.16567e-13
9.54969e-15
6.73681e-14
9.51583e-14
-6.04471e-14
3.18015e-14
2.43227e-13
3.99145e-14
5.38716e-15
4.51237e-14
4.32464e-14
4.49947e-15
3.84062e-14
4.20288e-14
3.56113e-15
2.4314e-14
1.48184e-14
-1.03704e-14
7.98344e-15
8.51238e-14
6.68532e-15
1.33863e-15
1.63666e-14
7.05148e-15
1.16579e-15
1.52886e-14
8.41535e-15
9.21776e-16
1.15664e-14
7.58102e-15
8.60841e-16
5.63347e-15
-5.33897e-15
9.11275e-15
-6.43999e-16
1.18507e-14
-6.44588e-15
-1.42077e-16
2.41715e-15
-5.32178e-15
-1.3604e-16
2.40061e-15
-4.36025e-15
-1.06268e-16
2.02782e-15
-3.52631e-15
-7.5686e-17
1.17075e-15
-3.3325e-15
1.08627e-16
1.40167e-16
-5.59114e-15
-1.78201e-13
1.37856e-12
4.62661e-13
-1.97971e-13
1.79745e-12
8.4665e-13
-3.49206e-13
2.42343e-12
1.42015e-12
-5.43109e-13
3.10777e-12
1.9504e-12
-6.70543e-13
3.48662e-12
1.9786e-12
-3.86125e-13
3.11865e-12
1.34111e-12
1.68447e-13
2.37467e-12
5.96419e-13
7.59843e-11
1.90264e-12
-2.09943e-12
1.06805e-12
-2.20545e-12
4.64243e-12
5.48891e-13
-1.47898e-12
2.48534e-12
2.33096e-13
-6.72737e-13
2.52528e-12
5.28608e-13
-8.91872e-13
2.64638e-12
9.76316e-14
-3.49771e-13
1.18022e-12
1.15385e-13
-3.30627e-13
1.19267e-12
4.14233e-13
-3.95013e-13
2.48918e-12
6.88107e-14
-1.26167e-13
1.01621e-12
3.50611e-14
-1.10124e-13
4.47963e-13
3.97479e-14
-9.1553e-14
4.47094e-13
2.0861e-13
-6.29163e-14
1.44518e-12
2.96635e-14
-3.79199e-15
5.29813e-13
1.2937e-14
2.34835e-15
2.09372e-13
5.93125e-15
8.38481e-15
8.93121e-14
5.7613e-15
1.48809e-14
8.55697e-14
7.67079e-12
2.35414e-12
-2.61047e-12
4.62669e-12
1.39194e-12
-2.21451e-12
5.68389e-12
1.63311e-12
-1.87239e-12
6.64445e-12
1.71472e-12
-1.45733e-12
6.9237e-12
1.50932e-12
-8.90062e-13
4.37688e-12
8.4357e-13
-3.94208e-13
1.15393e-11
4.68587e-12
-3.38427e-12
7.68694e-12
3.05304e-12
-3.14764e-12
1.06342e-11
4.12372e-12
-3.23248e-12
1.43482e-11
5.24667e-12
-3.40237e-12
1.85155e-11
6.023e-12
-3.3011e-12
2.08046e-11
5.72684e-12
-2.7975e-12
1.33592e-11
3.01433e-12
-1.77945e-12
1.64039e-11
8.41785e-12
-5.09994e-12
1.17513e-11
5.8582e-12
-4.45674e-12
1.79556e-11
8.75912e-12
-4.82093e-12
2.72727e-11
1.28427e-11
-6.02892e-12
4.05268e-11
1.76983e-11
-7.66983e-12
5.61031e-11
2.14375e-11
-8.78505e-12
6.35836e-11
1.94907e-11
-8.98302e-12
3.71651e-11
7.82368e-12
-5.03757e-12
2.21714e-11
1.31812e-11
-8.08265e-12
1.67342e-11
9.73093e-12
-6.32644e-12
2.76238e-11
1.57205e-11
-6.07894e-12
4.64495e-11
2.57062e-11
-7.59121e-12
7.78287e-11
4.09458e-11
-1.12286e-11
1.2413e-10
5.91633e-11
-1.64021e-11
1.72724e-10
6.91609e-11
-2.12269e-11
1.76993e-10
5.08185e-11
-2.16909e-11
8.12945e-11
1.492e-11
-9.89277e-12
2.78934e-11
1.67192e-11
-1.19224e-11
2.21553e-11
1.33358e-11
-9.16162e-12
3.89658e-11
2.32346e-11
-7.6774e-12
7.12467e-11
4.15883e-11
-7.74661e-12
1.32677e-10
7.46796e-11
-9.98791e-12
2.39282e-10
1.26067e-10
-1.48228e-11
3.83967e-10
1.79458e-10
-2.32746e-11
4.80367e-10
1.79892e-10
-3.89411e-11
3.85328e-10
9.91484e-11
-4.0319e-11
1.30348e-10
2.1535e-11
-1.4865e-11
3.08452e-11
1.55371e-11
-7.04144e-12
2.63902e-11
1.38698e-11
-3.08863e-12
4.9665e-11
2.66275e-11
2.68836e-12
9.78891e-11
5.26127e-11
1.26832e-11
1.99922e-10
1.06655e-10
3.14088e-11
4.03942e-10
2.12121e-10
6.00987e-11
7.3747e-10
3.7694e-10
7.58185e-11
1.05867e-09
5.06352e-10
2.2364e-11
1.0315e-09
4.11107e-10
-5.69246e-11
6.15528e-10
1.82034e-10
-5.79889e-11
1.61348e-10
3.80953e-11
-1.79827e-11
3.04372e-11
9.98146e-12
5.0282e-12
2.88042e-11
1.01346e-11
9.18181e-12
5.91239e-11
2.16247e-11
1.81817e-11
1.25882e-10
4.71717e-11
3.74191e-11
2.7727e-10
1.073e-10
8.10104e-11
6.05837e-10
2.5286e-10
1.7626e-10
1.20706e-09
5.7595e-10
3.08746e-10
1.92453e-09
1.02236e-09
2.83327e-10
2.16732e-09
1.11666e-09
4.54898e-11
1.64075e-09
7.64373e-10
-9.37657e-11
7.97552e-10
3.616e-10
-7.40492e-11
1.75954e-10
8.99825e-11
-1.96789e-11
2.83721e-11
-1.08773e-11
6.11271e-10
2.93277e-11
-5.12015e-12
7.56944e-10
6.53318e-11
-9.19739e-13
9.55121e-10
1.49383e-10
1.81089e-11
1.2308e-09
3.49834e-10
8.79875e-11
1.58722e-09
8.07885e-10
3.18879e-10
1.94451e-09
1.6919e-09
9.64834e-10
2.0798e-09
2.85726e-09
2.2571e-09
1.69745e-09
3.57793e-09
3.73666e-09
8.34352e-10
3.2529e-09