/*--------------------------------*- C++ -*----------------------------------*\
  =========                 |
  \\      /  F ield         | OpenFOAM: The Open Source CFD Toolbox
   \\    /   O peration     | Website:  https://openfoam.org
    \\  /    A nd           | Version:  7
     \\/     M anipulation  |
\*---------------------------------------------------------------------------*/
FoamFile
{
    version     2.0;
    format      ascii;
    class       volVectorField;
    location    "300";
    object      U;
}
// * * * * * * * * * * * * * * * * * * * * * * * * * * * * * * * * * * * * * //

dimensions      [0 1 -1 0 0 0 0];

internalField   nonuniform List<vector> 
43929
(
(0.000263516 0.000595911 -0.000250247)
(0.000953364 0.0022738 -0.000984604)
(3.98811e-06 0.000303283 -3.98456e-07)
(0.000414389 0.00107514 -0.000272047)
(0.00147403 0.00401473 -0.00164239)
(1.56248e-05 0.00117967 -6.2059e-06)
(0.00158059 0.00429877 -0.00112837)
(2.22936e-09 8.50883e-05 -1.71811e-07)
(2.31255e-05 0.000621017 -8.13721e-07)
(0.00038393 0.00135016 -0.000270346)
(0.00167937 0.00498766 -0.00197475)
(2.86391e-05 0.00215131 -2.32773e-05)
(0.00275664 0.00804791 -0.00216548)
(5.10478e-07 0.000347288 -3.14725e-06)
(9.54846e-05 0.00252997 -1.10652e-05)
(0.00153788 0.00546659 -0.00113906)
(-1.04196e-06 7.69513e-05 -2.16241e-07)
(8.47347e-06 0.000230127 -2.03788e-07)
(4.79125e-05 0.000864426 -9.65628e-07)
(0.000363301 0.0015036 -0.000269584)
(3.66573e-05 0.00273147 -3.55497e-05)
(0.003376 0.0103406 -0.00279666)
(0.00176591 0.00548483 -0.00214003)
(2.33978e-06 0.000678236 -1.3205e-05)
(0.000188753 0.00488916 -4.67766e-05)
(0.00287499 0.0104343 -0.00224777)
(-2.85577e-06 0.000310401 -1.6069e-06)
(3.66994e-05 0.000961278 -4.47014e-06)
(0.000200863 0.00356546 -1.44463e-05)
(0.00147331 0.00612099 -0.00113507)
(-1.40291e-06 5.04418e-05 -2.41885e-07)
(3.61842e-06 0.000196468 -4.13163e-08)
(3.17712e-05 0.000384701 -1.70385e-07)
(7.21736e-05 0.00104286 -1.04089e-06)
(0.000323213 0.00157906 -0.000269215)
(4.01265e-06 0.000900857 -2.42277e-05)
(0.000251869 0.00641863 -7.93537e-05)
(4.10422e-05 0.00303616 -4.18309e-05)
(0.00368094 0.0135812 -0.00298109)
(0.00368111 0.0115564 -0.00312764)
(0.0018515 0.00608011 -0.00232893)
(-2.3233e-06 0.000596479 -5.06372e-06)
(7.69248e-05 0.00193253 -2.1132e-05)
(0.000406049 0.00702001 -6.41987e-05)
(0.00281683 0.0117882 -0.0022429)
(-4.14079e-06 0.000206847 -2.05006e-06)
(1.8501e-05 0.000815981 -3.95369e-08)
(0.000133474 0.00161645 -4.47729e-06)
(0.000304873 0.00432585 -1.63031e-05)
(0.00131934 0.00644525 -0.00113309)
(-1.63742e-06 3.86924e-05 -2.6981e-07)
(2.99876e-06 0.000140762 -3.85652e-08)
(2.43543e-05 0.000321003 8.8595e-08)
(7.05057e-05 0.000541132 -1.84503e-07)
(9.22962e-05 0.00116156 -1.01231e-06)
(0.000276977 0.00160607 -0.00026904)
(-7.55815e-07 0.000784432 -6.81066e-06)
(0.000106068 0.00260923 -4.05455e-05)
(4.9473e-06 0.00102388 -3.12132e-05)
(0.000549804 0.00933091 -0.000113087)
(0.000286677 0.00724739 -9.85636e-05)
(4.67023e-05 0.00341022 -4.98217e-05)
(0.003667 0.0154415 -0.00298363)
(0.00410458 0.0152764 -0.00338129)
(0.00403301 0.0130539 -0.00353258)
(0.00194003 0.00702198 -0.0025868)
(-4.27602e-06 0.000406888 -6.93638e-06)
(4.6201e-05 0.00162624 1.0276e-06)
(0.000269885 0.00327886 -2.25829e-05)
(0.000623448 0.00859285 -7.41823e-05)
(0.00255196 0.0124684 -0.00223659)
(-4.89745e-06 0.000159996 -2.06031e-06)
(1.65318e-05 0.000589174 -3.03278e-07)
(0.000104613 0.00134374 1.98446e-06)
(0.000293658 0.00227932 -4.86371e-06)
(0.00039116 0.00483227 -1.62925e-05)
(0.00113394 0.00656424 -0.00113127)
(-1.8753e-06 2.95563e-05 -2.80159e-07)
(2.20096e-06 0.000112992 -3.00215e-08)
(2.5342e-05 0.000242821 1.32838e-07)
(6.55876e-05 0.000451561 1.55672e-07)
(0.000117993 0.000684246 -2.1786e-07)
(0.000110662 0.00123114 -9.17495e-07)
(0.000225908 0.00160746 -0.000268968)
(-2.94714e-06 0.000543182 -1.05883e-05)
(6.9372e-05 0.00218323 3.63354e-06)
(3.54189e-07 0.000887359 -7.39234e-06)
(0.000365067 0.00445323 -4.46725e-05)
(0.000122552 0.0029878 -5.31873e-05)
(6.11613e-06 0.0011813 -4.07576e-05)
(0.000850907 0.0114921 -0.000133127)
(0.000630261 0.0105996 -0.0001429)
(0.000331024 0.00828911 -0.00012482)
(5.70401e-05 0.00403204 -6.56391e-05)
(0.00335216 0.0163868 -0.00297578)
(0.00412415 0.0174252 -0.00339087)
(0.00462166 0.0173909 -0.00388452)
(0.00454539 0.0155327 -0.00419694)
(0.00197677 0.00833885 -0.00283579)
(-5.28767e-06 0.000318494 -6.6337e-06)
(4.39776e-05 0.00118867 -7.85884e-08)
(0.000218155 0.00270995 9.8426e-06)
(0.000586777 0.00464136 -2.49929e-05)
(0.000803806 0.00964332 -7.50857e-05)
(0.002205 0.0127278 -0.00222862)
(-5.70504e-06 0.000124023 -2.07894e-06)
(1.38091e-05 0.000474693 1.64108e-07)
(0.000109398 0.00102174 2.45033e-06)
(0.000274844 0.0018972 3.10483e-06)
(0.000490375 0.00288486 -5.46417e-06)
(0.00046812 0.00512974 -1.49083e-05)
(0.000926384 0.00657413 -0.00112997)
(-1.98958e-06 2.46447e-05 -2.62562e-07)
(1.57837e-06 9.26568e-05 -5.94782e-09)
(2.49324e-05 0.000200778 1.72967e-07)
(7.17659e-05 0.000357401 2.40445e-07)
(0.000126364 0.000581489 1.71344e-07)
(0.00016779 0.000802739 -2.28548e-07)
(0.000129955 0.00126968 -8.05903e-07)
(0.000175123 0.00160036 -0.000268932)
(-3.94345e-06 0.000428423 -9.50001e-06)
(6.77937e-05 0.0016094 1.30204e-06)
(-1.95938e-06 0.000618928 -1.24521e-05)
(0.000300626 0.00366654 1.93515e-05)
(8.30805e-05 0.00249317 5.68103e-06)
(2.01828e-06 0.00101816 -7.79941e-06)
(0.000788056 0.00632063 -4.98411e-05)
(0.000418235 0.00511388 -5.93063e-05)
(0.000143977 0.00347652 -7.10619e-05)
(8.1233e-06 0.00146284 -5.85965e-05)
(0.00110075 0.0129393 -0.000136023)
(0.000979303 0.0130947 -0.000169683)
(0.000734024 0.0122112 -0.000184428)
(0.000409208 0.0100866 -0.000178402)
(7.47001e-05 0.00498372 -9.7959e-05)
(0.00290856 0.0167566 -0.00296161)
(0.00378788 0.0185234 -0.00338294)
(0.00469317 0.0199164 -0.00390725)
(0.00545941 0.0209709 -0.00474612)
(0.00513802 0.0192291 -0.00514518)
(0.00193005 0.00986756 -0.00292444)
(-6.46141e-06 0.000251725 -6.61577e-06)
(4.02355e-05 0.000963397 2.52281e-06)
(0.000229627 0.00207778 1.22175e-05)
(0.000553973 0.00384822 1.49365e-05)
(0.000976324 0.00588299 -2.80324e-05)
(0.000959001 0.0102625 -6.90037e-05)
(0.00180669 0.0127611 -0.00222241)
(-6.00411e-06 0.000104116 -1.75859e-06)
(1.16714e-05 0.000391487 5.43476e-07)
(0.000108511 0.000846898 3.52056e-06)
(0.000300837 0.00150743 4.39791e-06)
(0.000525879 0.0024476 3.33817e-06)
(0.000696641 0.00338466 -5.55549e-06)
(0.000546773 0.00529437 -1.30367e-05)
(0.000718713 0.00654695 -0.00112887)
(-1.46744e-06 2.21412e-05 9.82086e-07)
(1.42201e-06 8.15967e-05 1.07053e-07)
(2.46414e-05 0.000171017 2.28666e-07)
(7.40987e-05 0.000303431 3.16071e-07)
(0.000143289 0.000479742 2.8692e-07)
(0.000201132 0.000702008 1.70645e-07)
(0.000217135 0.000898068 -1.96966e-07)
(0.000150857 0.00129648 -7.02578e-07)
(0.000125795 0.00159649 -0.000268897)
(-5.22013e-06 0.000342576 -9.47603e-06)
(6.41655e-05 0.00130984 6.82032e-06)
(-2.90163e-06 0.00048995 -1.07525e-05)
(0.000317612 0.00282785 2.36024e-05)
(8.20349e-05 0.00184561 2.52391e-06)
(-4.62406e-07 0.000716317 -1.459e-05)
(0.00074797 0.00522741 2.85517e-05)
(0.000347372 0.00420279 2.56729e-05)
(0.000101462 0.00289164 8.90616e-06)
(5.64671e-06 0.00124956 -7.69579e-06)
(0.00130784 0.00801945 -5.57617e-05)
(0.000899827 0.00726786 -6.64098e-05)
(0.000486717 0.00597052 -8.03443e-05)
(0.000183132 0.00436244 -0.000106991)
(1.17551e-05 0.00194982 -8.8115e-05)
(0.00131057 0.0137945 -0.0001253)
(0.00126897 0.0147679 -0.000174129)
(0.00114611 0.015142 -0.000221096)
(0.000921078 0.0150435 -0.000271142)
(0.000538031 0.0129787 -0.000288999)
(9.83799e-05 0.00627421 -0.000153183)
(0.00238865 0.0168147 -0.00294997)
(0.00329386 0.0189584 -0.00336501)
(0.00433622 0.0212166 -0.00390008)
(0.00565106 0.0241875 -0.00480905)
(0.00664171 0.0265172 -0.00608354)
(0.00558126 0.0238425 -0.0061221)
(0.00185541 0.011221 -0.00273772)
(-6.76739e-06 0.000213491 -5.41985e-06)
(3.72065e-05 0.000801236 4.28968e-06)
(0.000230271 0.00172912 1.77681e-05)
(0.000606522 0.00307693 2.14338e-05)
(0.00104881 0.00497919 1.59545e-05)
(0.0013843 0.00690243 -2.84045e-05)
(0.00111038 0.0106048 -6.01633e-05)
(0.00140369 0.0127146 -0.00221699)
(-4.76695e-06 9.23595e-05 2.28569e-06)
(1.14114e-05 0.000344657 2.05741e-06)
(0.000107888 0.000723812 4.48829e-06)
(0.000311397 0.00128226 6.12969e-06)
(0.000595922 0.00202566 5.31551e-06)
(0.000834736 0.00295703 3.30268e-06)
(0.000900522 0.00378459 -4.8059e-06)
(0.000630628 0.00540757 -1.11855e-05)
(0.000516504 0.0065319 -0.00112796)
(3.11779e-06 7.938e-05 4.83723e-06)
(-1.02598e-06 3.88563e-05 4.5958e-06)
(2.48794e-05 0.00015525 4.59852e-07)
(7.55866e-05 0.00026593 4.09399e-07)
(0.000152768 0.000417796 3.96369e-07)
(0.000236183 0.000602211 3.03226e-07)
(0.000284484 0.000812091 1.93094e-07)
(0.000266471 0.000982878 -1.24479e-07)
(0.000171596 0.00132792 -6.10329e-07)
(7.63505e-05 0.00160243 -0.000268843)
(-5.49642e-06 0.000292348 -7.48474e-06)
(6.10818e-05 0.00109539 1.00099e-05)
(-4.21507e-06 0.000393912 -1.07308e-05)
(0.000320562 0.00236013 3.47414e-05)
(7.86397e-05 0.00150519 1.00529e-05)
(-1.2864e-06 0.000569496 -1.19757e-05)
(0.000818885 0.00419855 4.07906e-05)
(0.000367614 0.00325095 3.11091e-05)
(0.000101273 0.0021515 4.69151e-06)
(2.82649e-06 0.000892079 -1.7302e-05)
(0.0014061 0.00677747 3.02666e-05)
(0.000856165 0.0060037 3.74145e-05)
(0.000408245 0.00489625 3.48356e-05)
(0.000136552 0.00360917 1.65795e-05)
(1.30529e-05 0.00164412 -4.27981e-06)
(0.00185137 0.0094089 -5.633e-05)
(0.00149141 0.00922576 -7.42503e-05)
(0.00104316 0.00849876 -9.04239e-05)
(0.000610067 0.00753498 -0.000124313)
(0.000252224 0.00592084 -0.000174328)
(1.93619e-05 0.00274707 -0.000125136)
(0.00150822 0.0142672 -0.000108883)
(0.00150937 0.0157579 -0.000160581)
(0.00148818 0.0171108 -0.000227983)
(0.00145104 0.0187766 -0.000329596)
(0.00124244 0.0197386 -0.000458091)
(0.000718671 0.0170983 -0.000495081)
(0.0001153 0.00772232 -0.000196264)
(0.00185792 0.0167597 -0.00293958)
(0.00270835 0.0190325 -0.00334988)
(0.00378126 0.0217391 -0.00387706)
(0.00527952 0.0258666 -0.00480615)
(0.00711055 0.0309586 -0.0062739)
(0.00791603 0.0338478 -0.00774779)
(0.00572232 0.0281966 -0.00648074)
(0.00181017 0.0119949 -0.00221707)
(-5.26585e-06 0.000188808 3.56178e-07)
(3.73765e-05 0.000706451 9.55669e-06)
(0.000230713 0.00148522 2.22487e-05)
(0.00063012 0.0026256 3.02286e-05)
(0.00118702 0.00414192 2.59442e-05)
(0.00165713 0.00602205 1.57839e-05)
(0.00178566 0.00771081 -2.45366e-05)
(0.00126708 0.0108361 -5.1152e-05)
(0.00100954 0.012688 -0.00221247)
(1.65492e-05 0.000325955 1.72359e-05)
(-2.48263e-06 9.11212e-05 5.85825e-06)
(0.000109365 0.000655662 7.61178e-06)
(0.000318233 0.00112648 7.81945e-06)
(0.000635976 0.00176712 7.66357e-06)
(0.000979396 0.00254336 5.71954e-06)
(0.0011786 0.00342026 3.74546e-06)
(0.00110356 0.00413794 -3.25031e-06)
(0.000713072 0.00553835 -9.46115e-06)
(0.000313642 0.00655656 -0.00112715)
(2.84307e-05 0.00015627 1.00338e-05)
(1.42434e-05 0.000148261 3.46117e-05)
(-3.22058e-06 3.82208e-05 -1.50858e-06)
(-4.07339e-07 2.02364e-05 1.13546e-06)
(7.71669e-05 0.000246843 7.94496e-07)
(0.000158944 0.000374981 5.32258e-07)
(0.000259089 0.000537515 4.37644e-07)
(0.0003459 0.000722674 3.39412e-07)
(0.00037463 0.000923111 2.67337e-07)
(0.000315823 0.00107425 -1.4146e-08)
(0.000189044 0.00137458 -5.20551e-07)
(2.44157e-05 0.00162024 -0.000268761)
(-4.06417e-06 0.00025873 -1.15798e-06)
(6.16317e-05 0.000967156 1.84206e-05)
(-4.47408e-06 0.000337131 -8.26389e-06)
(0.000322555 0.00203398 4.2926e-05)
(7.56393e-05 0.00126211 1.41298e-05)
(-2.63324e-06 0.000460764 -1.19304e-05)
(0.000852737 0.00359093 5.81069e-05)
(0.000372119 0.00271717 4.59959e-05)
(9.83401e-05 0.00175906 1.51625e-05)
(2.34183e-06 0.000714414 -1.2819e-05)
(0.00158976 0.0056586 4.937e-05)
(0.000937272 0.00483288 5.33781e-05)
(0.000432849 0.00380092 4.21039e-05)
(0.000138427 0.00270957 1.11758e-05)
(9.7209e-06 0.00120137 -1.63614e-05)
(0.00221414 0.00820277 2.98903e-05)
(0.00160396 0.00779171 3.95181e-05)
(0.000995357 0.00701086 5.01156e-05)
(0.00051977 0.00615742 5.44922e-05)
(0.000201211 0.00486024 3.65365e-05)
(2.5207e-05 0.00228352 1.4538e-05)
(0.002384 0.0105034 -4.86392e-05)
(0.00210944 0.010824 -7.4925e-05)
(0.00172627 0.0107946 -0.000101117)
(0.00129956 0.0107554 -0.00014162)
(0.000823229 0.0103191 -0.000213969)
(0.000364084 0.00851115 -0.000276691)
(3.17153e-05 0.00391871 -0.000140043)
(0.0017079 0.0145824 -9.18016e-05)
(0.0017318 0.0163049 -0.000139333)
(0.00176808 0.0182778 -0.000210509)
(0.00189138 0.0212938 -0.000342204)
(0.00198962 0.0249099 -0.000568538)
(0.00173133 0.0267111 -0.000840988)
(0.000888863 0.0218716 -0.000742714)
(0.000112096 0.00887049 -0.000117526)
(0.00133699 0.0167271 -0.00293082)
(0.00210782 0.018974 -0.00333622)
(0.00311389 0.0218361 -0.003857)
(0.00462833 0.0265587 -0.00477358)
(0.00678038 0.0333389 -0.00629181)
(0.00894338 0.0402723 -0.00829065)
(0.00875839 0.0412783 -0.00890746)
(0.00568615 0.0308849 -0.00564726)
(0.00179287 0.0121253 -0.00139588)
(4.43652e-05 0.000655391 3.10589e-05)
(-2.79552e-06 0.000173095 2.69689e-06)
(0.000234477 0.00134368 3.30599e-05)
(0.000645606 0.0023146 3.8077e-05)
(0.00126867 0.00362342 3.77572e-05)
(0.00194145 0.00520207 2.80632e-05)
(0.00233252 0.00696317 1.8072e-05)
(0.00218259 0.00841676 -1.66195e-05)
(0.00141841 0.0110964 -4.2623e-05)
(0.0006135 0.0127371 -0.00220843)
(0.000120503 0.000639215 3.82673e-05)
(2.79691e-05 0.00033984 4.56566e-05)
(-4.5289e-06 8.62226e-05 -7.60551e-07)
(0.000325385 0.00104252 1.29948e-05)
(0.000662261 0.00158905 1.01621e-05)
(0.0010748 0.00227385 8.51969e-06)
(0.00143199 0.00305051 6.51139e-06)
(0.00154963 0.00388441 5.23376e-06)
(0.00130587 0.00451667 -9.78442e-07)
(0.000781542 0.00573124 -7.7197e-06)
(0.000100387 0.00662962 -0.00112647)
(8.47427e-05 0.000253436 1.65409e-05)
(7.87915e-05 0.000297969 7.72164e-05)
(9.7218e-06 0.00015272 1.31347e-05)
(9.03457e-06 7.76796e-05 1.96398e-05)
(-4.08633e-06 3.86712e-05 -2.6675e-06)
(-2.30453e-06 2.09883e-05 -1.82196e-06)
(-1.32129e-07 1.31686e-05 -9.43669e-07)
(0.000164197 0.000354314 1.09784e-06)
(0.000274518 0.000492454 6.14061e-07)
(0.000389865 0.000660424 4.93773e-07)
(0.000472379 0.00085207 4.43936e-07)
(0.000472456 0.00105503 4.19148e-07)
(0.000362929 0.00118845 1.36067e-07)
(0.000200192 0.00143942 -4.33536e-07)
(-3.4058e-05 0.00164724 -0.000268678)
(6.88069e-05 0.000890747 4.16919e-05)
(-3.12172e-06 0.000298565 -1.72377e-06)
(-1.99709e-06 0.000236147 1.09759e-06)
(0.000327961 0.00183943 6.01093e-05)
(7.63965e-05 0.00111519 2.43512e-05)
(-2.87225e-06 0.000395675 -8.82742e-06)
(0.000875043 0.00317282 7.25365e-05)
(0.000375148 0.00234547 5.65089e-05)
(9.55556e-05 0.00147966 2.05154e-05)
(9.63639e-07 0.000583999 -1.25204e-05)
(0.00170073 0.00496034 7.24093e-05)
(0.000977103 0.00413823 7.63472e-05)
(0.000439622 0.00318246 6.24428e-05)
(0.000136775 0.00222519 2.78759e-05)
(9.98552e-06 0.000973283 -8.15532e-06)
(0.00259103 0.00710815 5.35718e-05)
(0.00181247 0.00651739 6.45792e-05)
(0.0010895 0.00565912 7.15839e-05)
(0.000552721 0.00481055 6.67927e-05)
(0.000208059 0.00370474 3.39693e-05)
(2.20219e-05 0.00172545 7.70552e-06)
(0.00310908 0.00948184 3.43711e-05)
(0.00252137 0.0094335 3.89914e-05)
(0.00185704 0.00910978 5.27189e-05)
(0.00124553 0.00885318 7.70301e-05)
(0.000716502 0.00839044 9.76077e-05)
(0.000306394 0.00692965 9.28989e-05)
(3.75329e-05 0.00323831 8.29763e-05)
(0.00290787 0.011451 -3.30961e-05)
(0.00271379 0.0120788 -6.46822e-05)
(0.00243897 0.0126642 -0.00010196)
(0.00214458 0.0136748 -0.0001589)
(0.00173847 0.0147974 -0.000250702)
(0.00116074 0.0150151 -0.000374184)
(0.00050807 0.012346 -0.000357755)
(4.15605e-05 0.00526398 -4.63406e-05)
(0.00189776 0.0149308 -7.54481e-05)
(0.00195358 0.0166675 -0.000117024)
(0.00202132 0.0189222 -0.00018235)
(0.00224301 0.0227905 -0.000316449)
(0.00261285 0.0284246 -0.000596417)
(0.00285632 0.034283 -0.00108729)
(0.00227246 0.0351506 -0.0014153)
(0.000932377 0.025752 -0.000686452)
(9.43529e-05 0.00932304 0.000130208)
(0.000812906 0.016793 -0.00292296)
(0.00151727 0.0189386 -0.00332467)
(0.00242525 0.0217743 -0.00383862)
(0.00382262 0.0267047 -0.00474309)
(0.00600518 0.0343625 -0.0062436)
(0.00883703 0.0438849 -0.00840274)
(0.01054 0.0503048 -0.0101088)
(0.00899149 0.0462838 -0.00831164)
(0.00560969 0.0315746 -0.00368747)
(0.0017873 0.0119424 -0.000509412)
(0.000249967 0.00127925 7.65894e-05)
(5.40168e-05 0.000625529 5.13744e-05)
(-4.14569e-06 0.000162586 -1.56112e-06)
(0.000660609 0.00213674 5.59784e-05)
(0.0013227 0.00326705 4.93558e-05)
(0.00213176 0.00466328 4.20965e-05)
(0.00283025 0.00623343 3.21368e-05)
(0.00305811 0.00789592 2.56104e-05)
(0.00257533 0.00916673 -5.14516e-06)
(0.00154088 0.0114765 -3.39419e-05)
(0.000196598 0.0128797 -0.00220509)
(0.00034958 0.00103549 6.34364e-05)
(0.000157541 0.000679607 0.000102668)
(2.47087e-05 0.00033208 2.48258e-05)
(-5.82702e-06 8.30044e-05 -3.4436e-06)
(0.000684669 0.00149642 1.77236e-05)
(0.00113938 0.0020867 1.17885e-05)
(0.00161417 0.00279219 9.68209e-06)
(0.00195259 0.00359201 8.6228e-06)
(0.00195106 0.00443263 8.21538e-06)
(0.00149818 0.00498915 2.00883e-06)
(0.000823609 0.00599875 -6.00925e-06)
(-0.000139953 0.00673993 -0.00112621)
(0.000179634 0.000368692 2.42021e-05)
(0.000223242 0.000488977 0.000130396)
(7.83282e-05 0.000311083 3.48297e-05)
(4.83025e-05 0.000156445 4.6222e-05)
(7.18073e-06 0.000160082 8.2827e-06)
(4.91989e-06 8.57214e-05 8.71703e-06)
(6.91558e-06 5.11014e-05 1.13189e-05)
(-4.83043e-06 3.60191e-05 -3.58292e-06)
(-2.91949e-06 2.22154e-05 -2.42012e-06)
(-1.93297e-06 1.41022e-05 -2.01979e-06)
(4.43371e-08 7.42233e-06 -3.00158e-06)
(0.000287187 0.000472098 1.37399e-06)
(0.000420579 0.000616079 7.09269e-07)
(0.000547354 0.000797511 6.31818e-07)
(0.000621273 0.00101404 6.65776e-07)
(0.000577899 0.00123076 6.75446e-07)
(0.000401418 0.00133052 3.23635e-07)
(0.000200623 0.00151557 -3.72566e-07)
(-0.000101697 0.00167423 -0.000268633)
(0.00034432 0.00173405 0.000107123)
(8.34931e-05 0.00102424 4.82706e-05)
(7.68079e-05 0.000840039 5.94761e-05)
(-1.65835e-06 0.000350809 -2.08126e-06)
(-1.34284e-06 0.000272699 5.46444e-07)
(-2.95985e-06 0.000222364 -2.18514e-06)
(0.000895315 0.00292543 0.000100927)
(0.000381457 0.00212093 7.73376e-05)
(9.65653e-05 0.00130868 3.31003e-05)
(7.39347e-07 0.000504297 -8.24003e-06)
(0.00177443 0.00448034 9.37828e-05)
(0.00100338 0.00366045 9.49319e-05)
(0.000444152 0.00275244 7.62608e-05)
(0.00013468 0.00188195 3.61101e-05)
(8.61082e-06 0.000807978 -6.49893e-06)
(0.00284599 0.00638432 8.08095e-05)
(0.00193985 0.005719 9.50215e-05)
(0.00113728 0.00485255 0.000102756)
(0.000564353 0.00404064 9.88079e-05)
(0.000209585 0.00306573 6.38133e-05)
(2.32515e-05 0.0014217 2.39205e-05)
(0.00376858 0.00851103 6.15922e-05)
(0.00294877 0.00818752 7.01595e-05)
(0.00209698 0.00763706 8.65271e-05)
(0.00136279 0.00718146 0.000111475)
(0.00076502 0.0066281 0.000127083)
(0.000323938 0.00541064 0.000116637)
(3.66285e-05 0.00255395 0.000108882)
(0.00406714 0.0107393 4.90546e-05)
(0.00353607 0.0109027 4.49258e-05)
(0.00291303 0.0110337 5.19671e-05)
(0.00230739 0.0115279 8.05591e-05)
(0.00167571 0.0121469 0.000134497)
(0.00103064 0.0121579 0.000191593)
(0.000430763 0.01006 0.000250685)
(4.09169e-05 0.00441993 0.000241914)
(0.00342335 0.0124508 -1.07164e-05)
(0.0033065 0.0131603 -4.40819e-05)
(0.00313402 0.014126 -8.79973e-05)
(0.0030237 0.0160422 -0.000160283)
(0.00285539 0.018846 -0.000284444)
(0.00242699 0.0216799 -0.00046487)
(0.00159692 0.0220482 -0.000565176)
(0.000610184 0.0167385 -0.000188301)
(4.02083e-05 0.00620989 0.000240054)
(0.00204788 0.0154356 -5.86772e-05)
(0.0021626 0.0170644 -9.55594e-05)
(0.00226952 0.0193462 -0.000152491)
(0.00254826 0.0236167 -0.000273249)
(0.00309166 0.0305274 -0.000552898)
(0.0038098 0.0395176 -0.00116787)
(0.00393311 0.0460769 -0.0019865)
(0.00251862 0.0422722 -0.00160885)
(0.000832776 0.0274172 -1.95758e-05)
(7.92429e-05 0.00923783 0.00036363)
(0.000260664 0.0169817 -0.00291654)
(0.000922752 0.0190138 -0.00331428)
(0.00174641 0.0217358 -0.00382301)
(0.00298147 0.0266414 -0.00471457)
(0.00498802 0.0346185 -0.0061906)
(0.00798184 0.0455457 -0.00834375)
(0.0109544 0.0557723 -0.010525)
(0.0112741 0.0576545 -0.0100446)
(0.00889245 0.0479135 -0.00565898)
(0.0055424 0.031208 -0.00137049)
(0.00178652 0.0118247 0.000266881)
(0.000694842 0.00206932 0.000127877)
(0.000275613 0.00124146 0.000123733)
(5.22236e-05 0.000602022 4.04862e-05)
(-5.41472e-06 0.000153693 -5.13153e-06)
(0.00136748 0.00306714 7.54734e-05)
(0.00226138 0.00428941 5.72379e-05)
(0.00319069 0.00572039 4.79944e-05)
(0.00384843 0.00732341 4.27352e-05)
(0.00383887 0.00898618 4.05133e-05)
(0.00294586 0.0100992 9.79575e-06)
(0.00161007 0.012002 -2.54304e-05)
(-0.000274008 0.0130936 -0.00220378)
(0.000735274 0.00150593 9.16692e-05)
(0.000444426 0.00111357 0.00017236)
(0.000159967 0.000671464 6.27901e-05)
(2.10543e-05 0.000329991 1.57181e-05)
(-6.98279e-06 7.75623e-05 -5.31295e-06)
(0.00119248 0.00199347 2.19097e-05)
(0.00174194 0.00260875 1.36716e-05)
(0.00226231 0.00336701 1.24461e-05)
(0.00256338 0.00426565 1.29387e-05)
(0.00238214 0.00515962 1.31364e-05)
(0.00165425 0.00557607 5.63526e-06)
(0.000821026 0.00631237 -4.74928e-06)
(-0.000417444 0.00684893 -0.00112666)
(0.000315639 0.00049649 3.26802e-05)
(0.0004696 0.000717225 0.000193337)
(0.000233652 0.00051456 6.13498e-05)
(0.000136654 0.000256922 7.9462e-05)
(7.67509e-05 0.000330367 2.50565e-05)
(4.63773e-05 0.000175451 2.445e-05)
(3.59589e-05 0.00010318 2.92534e-05)
(4.75101e-06 0.000156298 4.67061e-06)
(3.15349e-06 9.40579e-05 5.76322e-06)
(3.02157e-06 5.90834e-05 6.9772e-06)
(4.91383e-06 2.96025e-05 2.97298e-06)
(-5.18122e-06 3.27139e-05 -3.79471e-06)
(-3.44708e-06 2.0595e-05 -2.93244e-06)
(-2.45774e-06 1.55246e-05 -2.39664e-06)
(-1.58283e-06 8.16132e-06 -2.23206e-06)
(1.19912e-07 3.2852e-06 -4.20881e-06)
(0.000445765 0.000597474 1.6747e-06)
(0.000601607 0.000756928 8.97613e-07)
(0.000743734 0.000975068 9.33942e-07)
(0.000799239 0.00124269 1.07219e-06)
(0.000684597 0.00146808 1.06427e-06)
(0.00041994 0.00149433 5.39055e-07)
(0.000183956 0.00158593 -3.71506e-07)
(-0.000177323 0.00168715 -0.000268665)
(0.000932271 0.00280267 0.000178805)
(0.000397956 0.00199153 0.000125581)
(0.000364447 0.00165992 0.000148409)
(0.000103401 0.00119877 5.7663e-05)
(9.04961e-05 0.000963517 6.51422e-05)
(7.55609e-05 0.00080715 5.22923e-05)
(1.60694e-06 0.000448442 -1.29351e-06)
(-2.90824e-07 0.000321174 1.22538e-07)
(-2.1196e-06 0.000257236 -2.35321e-06)
(-4.0586e-06 0.00020974 -5.72401e-06)
(0.00183381 0.00419939 0.000135128)
(0.00102652 0.00337335 0.000129303)
(0.000451598 0.00248888 0.000101815)
(0.000136058 0.0016676 5.29764e-05)
(8.28754e-06 0.0007038 -2.59035e-07)
(0.00302022 0.00588132 0.000108705)
(0.0020246 0.00516999 0.000122576)
(0.00116883 0.00429802 0.000127225)
(0.000572055 0.00350652 0.000119721)
(0.000209328 0.00261589 7.91676e-05)
(2.19623e-05 0.00120481 3.0503e-05)
(0.00424868 0.0078252 9.22793e-05)
(0.00323943 0.00736094 0.000106076)
(0.00224553 0.00670992 0.000127699)
(0.00142558 0.00617367 0.000160303)
(0.000786889 0.00559875 0.000184382)
(0.000331536 0.00453344 0.000174257)
(3.82819e-05 0.00215265 0.000144739)
(0.00511305 0.00998237 8.21593e-05)
(0.00428381 0.00979963 8.07981e-05)
(0.00340418 0.00959485 9.41044e-05)
(0.0026019 0.00970355 0.000134381)
(0.00183132 0.00993852 0.000204313)
(0.00110493 0.00978072 0.000283483)
(0.000462635 0.00812481 0.000377022)
(4.11913e-05 0.00365792 0.000335915)
(0.00509357 0.0121977 7.78673e-05)
(0.00462031 0.0123411 6.43284e-05)
(0.00407893 0.0127493 6.00392e-05)
(0.00360552 0.0139718 7.9355e-05)
(0.00306935 0.0158725 0.000139374)
(0.00234751 0.017783 0.000248997)
(0.00142146 0.0179608 0.000393911)
(0.000501495 0.0139635 0.000617451)
(3.56276e-05 0.00535473 0.000504274)
(0.00390677 0.0136909 1.82134e-05)
(0.00388799 0.0142975 -1.44989e-05)
(0.00381317 0.015379 -6.00223e-05)
(0.00387651 0.0178793 -0.000138203)
(0.00400984 0.0221049 -0.000287727)
(0.00395851 0.0276845 -0.000541196)
(0.00331997 0.032088 -0.000788598)
(0.00192335 0.0300976 -0.000457145)
(0.000585852 0.0197944 0.000547221)
(3.18614e-05 0.00648727 0.000542191)
(0.00212599 0.016132 -4.22131e-05)
(0.00232564 0.0176374 -7.34771e-05)
(0.00250067 0.0198051 -0.00012361)
(0.00283736 0.024153 -0.00022678)
(0.00347698 0.0316881 -0.000474974)
(0.00450704 0.0426896 -0.00109541)
(0.00541262 0.053877 -0.00225605)
(0.004591 0.0564534 -0.00259326)
(0.00231869 0.0455593 -0.00064778)
(0.000712463 0.0273313 0.000799503)
(7.49589e-05 0.00908218 0.000468072)
(-0.000363422 0.0172632 -0.002914)
(0.000295965 0.0192277 -0.00330584)
(0.00106242 0.021823 -0.00380896)
(0.00214841 0.0265991 -0.0046901)
(0.0039012 0.0345665 -0.00613917)
(0.00670429 0.0460519 -0.00824573)
(0.0102334 0.0585352 -0.0105292)
(0.0122464 0.0651149 -0.0109164)
(0.0112576 0.0605054 -0.00716544)
(0.00872443 0.0475604 -0.00215029)
(0.00551606 0.0309154 0.000719463)
(0.00178801 0.0119004 0.00100997)
(0.00144171 0.00300817 0.00018088)
(0.000757313 0.00202944 0.000208296)
(0.00027884 0.00120651 0.000104622)
(4.8575e-05 0.000583841 3.01245e-05)
(-6.67777e-06 0.000143665 -7.9472e-06)
(0.00236595 0.00408443 9.20432e-05)
(0.00344473 0.00535601 6.64419e-05)
(0.00445791 0.00688121 6.17855e-05)
(0.00503558 0.00866492 6.41312e-05)
(0.00467155 0.0104207 6.48116e-05)
(0.00324283 0.0112546 2.77644e-05)
(0.00159021 0.0126163 -1.91224e-05)
(-0.000815508 0.0133006 -0.00220588)
(0.00128808 0.00202722 0.000121875)
(0.00093256 0.00163255 0.000252514)
(0.000462074 0.00110802 0.000108074)
(0.00015803 0.000675598 4.51377e-05)
(1.72789e-05 0.000319968 9.42866e-06)
(-7.62555e-06 7.10565e-05 -6.09047e-06)
(0.00184674 0.00252148 2.66053e-05)
(0.00248719 0.00320025 1.7335e-05)
(0.00306752 0.00410686 1.83296e-05)
(0.00329032 0.0052114 2.06785e-05)
(0.00281625 0.00613802 2.04703e-05)
(0.0017277 0.00625171 9.745e-06)
(0.000748145 0.00660067 -4.51523e-06)
(-0.000726357 0.00689767 -0.00112783)
(0.00049355 0.00063487 4.19437e-05)
(0.000827105 0.000971121 0.000267654)
(0.000500183 0.000759119 9.26162e-05)
(0.000287529 0.00037699 0.000119209)
(0.000236194 0.000550934 4.53833e-05)
(0.00014091 0.000290663 4.38852e-05)
(0.000101611 0.000169585 5.16513e-05)
(7.41006e-05 0.00032778 1.77877e-05)
(4.51715e-05 0.000195054 1.83614e-05)
(3.35301e-05 0.000121508 2.04985e-05)
(2.48895e-05 6.00748e-05 1.21802e-05)
(3.14476e-06 0.000149749 3.4385e-06)
(1.48056e-06 9.21234e-05 3.43737e-06)
(1.56302e-06 6.7391e-05 4.778e-06)
(1.4001e-06 3.62272e-05 5.13276e-06)
(3.18099e-06 1.42022e-05 -2.31624e-06)
(-5.38846e-06 2.8512e-05 -3.89797e-06)
(-3.6727e-06 1.85803e-05 -3.00961e-06)
(-2.90809e-06 1.43157e-05 -2.72508e-06)
(-2.02861e-06 9.55926e-06 -2.37635e-06)
(-1.27336e-06 3.56148e-06 -2.41679e-06)
(1.12801e-07 7.39591e-07 -4.66278e-06)
(0.000646566 0.000740803 2.10769e-06)
(0.000836046 0.000943722 1.2952e-06)
(0.000997867 0.00123733 1.53915e-06)
(0.00100788 0.00157672 1.76582e-06)
(0.000773416 0.00177562 1.62405e-06)
(0.00040574 0.0016579 7.65621e-07)
(0.000146342 0.00162461 -4.43105e-07)
(-0.000252512 0.00166661 -0.000268843)
(0.00191645 0.00407318 0.000249441)
(0.00106434 0.00321759 0.000209353)
(0.00098109 0.00270971 0.000249629)
(0.000467986 0.00232773 0.000151246)
(0.000415383 0.00190014 0.000164643)
(0.00036743 0.00160917 0.000136891)
(0.000141998 0.00152359 7.83244e-05)
(0.000109078 0.00112649 7.33322e-05)
(8.95058e-05 0.000925762 5.93453e-05)
(7.2291e-05 0.000778076 4.28323e-05)
(8.3234e-06 0.000630301 6.64447e-06)
(2.22174e-06 0.000412991 5.81211e-07)
(-8.66138e-07 0.000303685 -2.28145e-06)
(-3.11409e-06 0.000242589 -5.74216e-06)
(-5.24882e-06 0.000196284 -8.89507e-06)
(0.00315811 0.00559053 0.000163631)
(0.00209187 0.00484247 0.000172584)
(0.00119557 0.00395891 0.000169334)
(0.000581416 0.00317149 0.000153746)
(0.000210977 0.00232659 0.000103196)
(2.10284e-05 0.00106323 3.96715e-05)
(0.00458797 0.00733685 0.00012621)
(0.00343835 0.00678594 0.000142031)
(0.00234453 0.00607198 0.000163995)
(0.00146705 0.00548094 0.000197225)
(0.000801143 0.00488647 0.000221324)
(0.000334882 0.00392039 0.000207407)
(3.708e-05 0.00187013 0.000164907)
(0.00592156 0.00939587 0.000118921)
(0.00482956 0.00901842 0.000121209)
(0.00374036 0.00863647 0.000142587)
(0.00278852 0.00854487 0.000198707)
(0.00192158 0.00858287 0.000291892)
(0.00114547 0.00834203 0.000394706)
(0.000476929 0.00693698 0.000496113)
(4.19454e-05 0.00317102 0.000409881)
(0.00667295 0.0117786 0.000123317)
(0.00580538 0.0114839 0.000107925)
(0.00493799 0.0114784 0.000108564)
(0.00420708 0.0121922 0.00014629)
(0.00345126 0.0134565 0.000244659)
(0.00255657 0.0147617 0.000425122)
(0.00152098 0.0148473 0.000676724)
(0.000529846 0.0117534 0.000940919)
(3.59612e-05 0.00462282 0.000636252)
(0.00618232 0.0141052 0.000124484)
(0.00577926 0.0140027 0.000102277)
(0.00532173 0.0144205 8.63344e-05)
(0.00503366 0.0161371 9.22902e-05)
(0.00476327 0.0192568 0.000137383)
(0.0042331 0.0233607 0.000250914)
(0.00318954 0.0265968 0.000446309)
(0.00168512 0.0252614 0.000839043)
(0.00047172 0.0170668 0.00130776)
(2.64806e-05 0.00568232 0.000753261)
(0.00429027 0.0152244 5.27691e-05)
(0.00443158 0.0157061 2.36258e-05)
(0.00447693 0.0166907 -1.9944e-05)
(0.0047039 0.0194379 -9.39985e-05)
(0.00511766 0.0246005 -0.000246956)
(0.00551835 0.0324612 -0.000550567)
(0.00537981 0.0411097 -0.000973516)
(0.00401806 0.044013 -0.000865797)
(0.00186448 0.0356409 0.000588837)
(0.000485404 0.0206831 0.00143815)
(2.75549e-05 0.00640554 0.000666795)
(0.00208483 0.0169444 -2.99111e-05)
(0.00240622 0.018427 -5.17892e-05)
(0.00267766 0.0204642 -9.38071e-05)
(0.00309993 0.0247214 -0.000181522)
(0.00381629 0.0324247 -0.000389341)
(0.00499932 0.0444448 -0.000940607)
(0.00646696 0.0587264 -0.00219361)
(0.00660334 0.0669938 -0.00324708)
(0.0043656 0.0615797 -0.00156688)
(0.00198924 0.0456994 0.000895045)
(0.000666107 0.0269305 0.0013202)
(7.85249e-05 0.00906581 0.000505361)
(-0.00107956 0.0175314 -0.00291785)
(-0.000412762 0.0195463 -0.00330248)
(0.000340856 0.022069 -0.00379759)
(0.00130764 0.0267079 -0.00466801)
(0.0028148 0.0345235 -0.00609421)