/*--------------------------------*- C++ -*----------------------------------*\
  =========                 |
  \\      /  F ield         | OpenFOAM: The Open Source CFD Toolbox
   \\    /   O peration     | Website:  https://openfoam.org
    \\  /    A nd           | Version:  7
     \\/     M anipulation  |
\*---------------------------------------------------------------------------*/
FoamFile
{
    version     2.0;
    format      ascii;
    class       surfaceScalarField;
    location    "409";
    object      phi;
}
// * * * * * * * * * * * * * * * * * * * * * * * * * * * * * * * * * * * * * //

dimensions      [0 3 -1 0 0 0 0];

internalField   nonuniform List<scalar> 
127637
(
-3.64869e-14
6.46568e-12
3.16815e-11
-1.01013e-13
8.03186e-12
3.52385e-11
-6.67595e-14
1.38001e-11
4.01814e-11
-8.46921e-14
5.82909e-14
3.17079e-11
-1.15771e-13
9.06061e-12
3.90631e-11
-1.36391e-13
1.70892e-11
4.46932e-11
-1.4401e-13
1.0701e-13
3.51908e-11
-1.34084e-13
2.22352e-11
5.06963e-11
-1.08805e-13
3.06059e-13
4.00425e-11
-1.68774e-14
5.46394e-13
3.11784e-11
-1.37797e-13
1.01881e-11
4.32493e-11
-1.60289e-13
1.92973e-11
4.95451e-11
-1.89441e-13
1.20728e-13
3.89878e-11
-2.11682e-13
2.73539e-11
5.6385e-11
-1.82253e-13
4.341e-13
4.44396e-11
-3.5829e-14
6.15815e-13
3.4594e-11
-2.63226e-13
3.16231e-11
6.36303e-11
-1.40703e-13
7.93672e-13
5.03494e-11
-2.12091e-14
1.19853e-12
3.94115e-11
-1.231e-14
7.27087e-14
3.1118e-11
-1.23591e-13
1.12631e-11
4.77677e-11
-1.82056e-13
2.17029e-11
5.48534e-11
-2.21608e-13
1.60986e-13
4.31204e-11
-2.41234e-13
3.09054e-11
6.25071e-11
-2.40778e-13
4.90125e-13
4.92342e-11
-5.55302e-14
6.85937e-13
3.83216e-11
-3.51788e-13
3.84833e-11
7.07616e-11
-2.31761e-13
1.03399e-12
5.58762e-11
-4.52472e-14
1.35039e-12
4.3729e-11
-2.45545e-14
8.05316e-14
3.45257e-11
-4.57663e-13
4.17214e-11
7.92969e-11
-1.84054e-13
1.66763e-12
6.29404e-11
-2.64979e-14
1.98164e-12
4.95928e-11
-1.55929e-14
1.70081e-13
3.93298e-11
-4.83482e-15
4.09216e-14
3.10819e-11
-1.12841e-13
1.24354e-11
5.26405e-11
-1.64689e-13
2.40034e-11
6.0583e-11
-2.34865e-13
1.87417e-13
4.75936e-11
-2.57715e-13
3.47666e-11
6.92027e-11
-2.80441e-13
6.01205e-13
5.44528e-11
-7.36334e-14
7.63039e-13
4.23755e-11
-3.84747e-13
4.34845e-11
7.84453e-11
-3.0588e-13
1.16696e-12
6.19044e-11
-7.02276e-14
1.50424e-12
4.84409e-11
-3.68282e-14
8.92823e-14
3.82445e-11
-5.73883e-13
5.00255e-11
8.81685e-11
-2.96105e-13
2.06257e-12
6.98451e-11
-5.68815e-14
2.23127e-12
5.50257e-11
-3.10312e-14
1.88395e-13
4.36366e-11
-1.03847e-14
4.56792e-14
3.44856e-11
-6.82975e-13
5.21966e-11
9.79017e-11
-2.41858e-13
3.09596e-12
7.81104e-11
-3.27642e-14
2.90383e-12
6.2051e-11
-1.96625e-14
2.97674e-13
4.94848e-11
-6.10049e-15
9.0627e-14
3.92861e-11
-3.25791e-15
5.7955e-15
3.10794e-11
-9.30525e-14
1.36595e-11
5.78598e-11
-1.49015e-13
2.65068e-11
6.67614e-11
-2.36663e-13
2.27335e-13
5.24149e-11
-2.32857e-13
3.84696e-11
7.64302e-11
-2.9752e-13
6.85969e-13
6.01015e-11
-8.93262e-14
8.43746e-13
4.67655e-11
-3.8521e-13
4.89262e-11
8.68453e-11
-3.54432e-13
1.3868e-12
6.84656e-11
-9.30704e-14
1.67342e-12
5.35653e-11
-4.87749e-14
9.95363e-14
4.22879e-11
-6.12248e-13
5.64934e-11
9.77417e-11
-3.88953e-13
2.32558e-12
7.73796e-11
-8.84264e-14
2.48544e-12
6.09547e-11
-4.65657e-14
2.08876e-13
4.83368e-11
-1.65212e-14
5.07251e-14
3.82e-11
-8.63389e-13
6.15237e-11
1.08832e-10
-3.79044e-13
3.69614e-12
8.66722e-11
-7.10814e-14
3.26585e-12
6.88488e-11
-3.90449e-14
3.29791e-13
5.49036e-11
-1.31245e-14
1.01143e-13
4.35882e-11
-6.80918e-15
6.38869e-15
3.44827e-11
-8.69153e-13
6.26254e-11
1.19431e-10
-3.14121e-13
5.2301e-12
9.60817e-11
-3.98814e-14
3.9686e-12
7.70855e-11
-2.46816e-14
4.64732e-13
6.19086e-11
-7.65867e-15
1.5118e-13
4.94319e-11
-4.11822e-15
1.32931e-14
3.92828e-11
-1.82954e-15
1.98014e-15
3.10792e-11
-7.51104e-14
1.49675e-11
6.34195e-11
-1.23593e-13
2.91218e-11
7.33792e-11
-2.27228e-13
2.64604e-13
5.75857e-11
-2.08498e-13
4.24903e-11
8.42231e-11
-2.99446e-13
8.005e-13
6.61901e-11
-1.0216e-13
9.31217e-13
5.14966e-11
-3.46469e-13
5.41675e-11
9.5914e-11
-3.7597e-13
1.56978e-12
7.55679e-11
-1.1297e-13
1.85082e-12
5.91144e-11
-5.99391e-14
1.10677e-13
4.6666e-11
-5.84644e-13
6.35591e-11
1.08203e-10
-4.47243e-13
2.71018e-12
8.55803e-11
-1.17142e-13
2.76495e-12
6.74028e-11
-6.16501e-14
2.32676e-13
5.34472e-11
-2.30807e-14
5.61986e-14
4.22383e-11
-9.22389e-13
6.93784e-11
1.20645e-10
-4.93824e-13
4.16159e-12
9.60205e-11
-1.10754e-13
3.63742e-12
7.62673e-11
-5.85983e-14
3.65673e-13
6.08175e-11
-2.08804e-14
1.12322e-13
4.8283e-11
-1.06585e-14
7.09408e-15
3.81967e-11
-1.16211e-12
7.25829e-11
1.32736e-10
-4.8173e-13
6.09257e-12
1.06603e-10
-8.80841e-14
4.45548e-12
8.55307e-11
-4.88548e-14
5.15071e-13
6.86877e-11
-1.65073e-14
1.68675e-13
5.4845e-11
-8.60599e-15
1.46672e-14
4.35844e-11
-3.86115e-15
2.23325e-15
3.44825e-11
-9.4561e-13
7.25082e-11
1.43564e-10
-3.95079e-13
8.15342e-12
1.16903e-10
-4.74461e-14
5.1749e-12
9.49229e-11
-3.07994e-14
6.81647e-13
7.68994e-11
-9.545e-15
2.23811e-13
6.18455e-11
-5.18216e-15
2.28752e-14
4.94275e-11
-2.3125e-15
4.37945e-15
3.92827e-11
-1.11701e-15
1.60856e-16
3.10802e-11
-5.63456e-14
1.63443e-11
6.92987e-11
-1.0003e-13
3.19139e-11
8.04287e-11
-2.1164e-13
3.06226e-13
6.30976e-11
-1.74142e-13
4.66904e-11
9.25705e-11
-2.8757e-13
9.11815e-13
7.27201e-11
-1.11442e-13
1.02343e-12
5.65716e-11
-3.0663e-13
5.9843e-11
1.05691e-10
-3.77904e-13
1.80219e-12
8.32234e-11
-1.29166e-13
2.04299e-12
6.50946e-11
-6.99622e-14
1.23171e-13
5.13834e-11
-5.23763e-13
7.04135e-11
1.19499e-10
-4.73957e-13
3.05277e-12
9.44578e-11
-1.42247e-13
3.05856e-12
7.43853e-11
-7.57721e-14
2.58548e-13
5.89806e-11
-2.99221e-14
6.20599e-14
4.66108e-11
-8.61304e-13
7.80172e-11
1.33548e-10
-5.625e-13
4.78607e-12
1.06195e-10
-1.46654e-13
4.04609e-12
8.4335e-11
-7.7558e-14
4.07073e-13
6.72474e-11
-2.91741e-14
1.24442e-13
5.33873e-11
-1.47822e-14
7.8486e-15
4.22346e-11
-1.27485e-12
8.16705e-11
1.47136e-10
-6.21905e-13
6.84782e-12
1.18099e-10
-1.3772e-13
4.96095e-12
9.47466e-11
-7.33132e-14
5.71178e-13
7.60862e-11
-2.62683e-14
1.87318e-13
6.07523e-11
-1.3472e-14
1.62742e-14
4.82787e-11
-6.09948e-15
2.46358e-15
3.81965e-11
-1.38911e-12
8.28169e-11
1.59521e-10
-5.99215e-13
9.3398e-12
1.29693e-10
-1.07819e-13
5.79648e-12
1.05323e-10
-6.06975e-14
7.55893e-13
8.53198e-11
-2.06361e-14
2.49587e-13
6.86179e-11
-1.08276e-14
2.52579e-14
5.484e-11
-4.88074e-15
4.92304e-15
4.35842e-11
-2.34826e-15
1.50242e-16
3.44836e-11
-8.92094e-13
8.12453e-11
1.69556e-10
-4.7357e-13
1.18335e-11
1.40357e-10
-5.47507e-14
6.51489e-12
1.15618e-10
-3.81274e-14
9.58441e-13
9.46842e-11
-1.17852e-14
3.09524e-13
7.68255e-11
-6.48493e-15
3.50702e-14
6.18398e-11
-2.90926e-15
7.30328e-15
4.94275e-11
-1.41141e-15
3.81316e-16
3.92839e-11
-6.33033e-16
4.58429e-17
3.10808e-11
-3.93666e-14
1.77928e-11
7.54781e-11
-7.58228e-14
3.48523e-11
8.78834e-11
-1.9176e-13
3.47302e-13
6.89315e-11
-1.42075e-13
5.11716e-11
1.01462e-10
-2.67758e-13
1.03422e-12
7.96808e-11
-1.17183e-13
1.1217e-12
6.19817e-11
-2.58223e-13
6.5771e-11
1.16164e-10
-3.62915e-13
2.03342e-12
9.14339e-11
-1.40923e-13
2.2458e-12
7.15095e-11
-7.84399e-14
1.36708e-13
5.64434e-11
-4.5937e-13
7.78126e-11
1.31677e-10
-4.75469e-13
3.46815e-12
1.04027e-10
-1.62607e-13
3.37654e-12
8.19102e-11
-8.8437e-14
2.8748e-13
6.49429e-11
-3.68247e-14
6.84135e-14
5.13219e-11
-7.7212e-13
8.64889e-11
1.47486e-10
-5.9498e-13
5.37362e-12
1.17211e-10
-1.78173e-13
4.47644e-12
9.30714e-11
-9.53346e-14
4.52111e-13
7.42095e-11
-3.78237e-14
1.37449e-13
5.89139e-11
-1.91271e-14
8.71719e-15
4.66064e-11
-1.19186e-12
9.17395e-11
1.62856e-10
-7.01966e-13
7.80241e-12
1.30611e-10
-1.82327e-13
5.51708e-12
1.04769e-10
-9.69966e-14
6.35439e-13
8.41303e-11
-3.67075e-14
2.07527e-13
6.71747e-11
-1.86841e-14
1.80124e-14
5.33823e-11
-8.53948e-15
2.75668e-15
4.22343e-11
-1.59804e-12
9.29277e-11
1.76815e-10
-7.68742e-13
1.04778e-11
1.43676e-10
-1.69503e-13
6.45085e-12
1.16671e-10
-9.10407e-14
8.38373e-13
9.45098e-11
-3.28542e-14
2.77157e-13
7.60086e-11
-1.69504e-14
2.80109e-14
6.07466e-11
-7.70985e-15
5.44358e-15
4.82785e-11
-3.70045e-15
1.92243e-16
3.81976e-11
-1.48848e-12
9.17569e-11
1.88362e-10
-7.19419e-13
1.34052e-11
1.55702e-10
-1.29633e-13
7.279e-12
1.28285e-10
-7.47333e-14
1.06348e-12
1.05052e-10
-2.55979e-14
3.44924e-13
8.52383e-11
-1.35455e-14
3.8758e-14
6.86114e-11
-6.14167e-15
8.18982e-15
5.484e-11
-2.96799e-15
3.75056e-16
4.35856e-11
-1.3355e-15
6.29572e-17
3.44842e-11
-7.49565e-13
8.81833e-11
1.96174e-10
-5.37525e-13
1.60899e-11
1.65837e-10
-6.1049e-14
7.96703e-12
1.38966e-10
-4.66602e-14
1.3022e-12
1.15321e-10
-1.43867e-14
4.08989e-13
9.45991e-11
-8.05894e-15
5.04504e-14
7.68182e-11
-3.63761e-15
1.08032e-14
6.18399e-11
-1.77551e-15
6.69552e-16
4.9429e-11
-8.00422e-16
9.64255e-17
3.92846e-11
-3.56609e-16
-5.21511e-19
3.10812e-11
-2.39134e-14
1.93015e-11
8.19161e-11
-5.38585e-14
3.7943e-11
9.57191e-11
-1.70291e-13
3.8911e-13
7.50674e-11
-1.09891e-13
5.58864e-11
1.10866e-10
-2.42617e-13
1.15736e-12
8.70482e-11
-1.19261e-13
1.22487e-12
6.77087e-11
-2.12974e-13
7.20897e-11
1.27321e-10
-3.37814e-13
2.28536e-12
1.00186e-10
-1.48168e-13
2.46185e-12
7.8348e-11
-8.50985e-14
1.51324e-13
6.1837e-11
-3.89918e-13
8.55403e-11
1.44722e-10
-4.56541e-13
3.88893e-12
1.1429e-10
-1.77426e-13
3.7124e-12
8.99821e-11
-9.91582e-14
3.18795e-13
7.13381e-11
-4.35436e-14
7.51493e-14
5.63749e-11
-6.74466e-13
9.56059e-11
1.62511e-10
-5.95463e-13
6.06118e-12
1.29084e-10
-2.03622e-13
4.94233e-12
1.02486e-10
-1.11266e-13
5.02333e-13
8.17113e-11
-4.65503e-14
1.51521e-13
6.48685e-11
-2.36197e-14
9.63305e-15
5.13168e-11
-1.07697e-12
1.01759e-10
1.79847e-10
-7.40872e-13
8.74048e-12
1.44158e-10
-2.21654e-13
6.10466e-12
1.15622e-10
-1.19245e-13
7.05391e-13
9.28404e-11
-4.75936e-14
2.29247e-13
7.41286e-11
-2.41764e-14
1.99833e-14
5.89081e-11
-1.11678e-14
3.01718e-15
4.6606e-11
-1.5266e-12
1.04198e-10
1.95682e-10
-8.62538e-13
1.18576e-11
1.58894e-10
-2.24569e-13
7.17124e-12
1.29012e-10
-1.20397e-13
9.32109e-13
1.04502e-10
-4.5922e-14
3.07039e-13
8.40439e-11
-2.35078e-14
3.10081e-14
6.71683e-11
-1.07939e-14
6.07284e-15
5.33821e-11
-5.17537e-15
1.95751e-16
4.22355e-11
-1.82299e-12
1.02659e-10
2.08766e-10
-9.22311e-13
1.50101e-11
1.72486e-10
-2.05563e-13
8.0951e-12
1.42108e-10
-1.1199e-13
1.17976e-12
1.16367e-10
-4.0789e-14
3.82965e-13
9.44192e-11
-2.12057e-14
4.29606e-14
7.60013e-11
-9.70115e-15
9.07169e-15
6.07466e-11
-4.67719e-15
4.56347e-16
4.828e-11
-2.10846e-15
6.3189e-17
3.81984e-11
-1.45795e-12
9.88296e-11
2.17887e-10
-8.26631e-13
1.80967e-11
1.83959e-10
-1.52246e-13
8.88032e-12
1.54192e-10
-9.09339e-14
1.4457e-12
1.27947e-10
-3.14493e-14
4.5535e-13
1.04958e-10
-1.68252e-14
5.58032e-14
8.523e-11
-7.68398e-15
1.20812e-14
6.86116e-11
-3.73414e-15
6.80521e-16
5.48416e-11
-1.68842e-15
1.24554e-16
4.35864e-11
-7.46847e-16
-1.33996e-17
3.44846e-11
-5.82159e-13
9.27163e-11
2.21702e-10
-5.78694e-13
2.05884e-11
1.92254e-10
-6.60858e-14
9.48523e-12
1.64385e-10
-5.61938e-14
1.71379e-12
1.38611e-10
-1.7333e-14
5.22305e-13
1.15225e-10
-9.92981e-15
6.95627e-14
9.459e-11
-4.51347e-15
1.49314e-14
7.68185e-11
-2.22123e-15
1.05371e-15
6.18417e-11
-1.00744e-15
1.61491e-16
4.94299e-11
-4.50223e-16
7.45075e-18
3.92851e-11
-1.86154e-16
-1.06913e-17
3.10813e-11
-1.05119e-14
2.08604e-11
8.85643e-11
-3.39448e-14
4.11614e-11
1.03883e-10
-1.48595e-13
4.3053e-13
8.14639e-11
-8.07369e-14
6.08442e-11
1.2075e-10
-2.15442e-13
1.28379e-12
9.47972e-11
-1.18005e-13
1.33319e-12
7.3733e-11
-1.68905e-13
7.8736e-11
1.39119e-10
-3.0612e-13
2.54164e-12
1.0945e-10
-1.50797e-13
2.68873e-12
8.5587e-11
-8.96981e-14
1.66831e-13
6.75465e-11
-3.25103e-13
9.3767e-11
1.58619e-10
-4.24807e-13
4.34414e-12
1.2523e-10
-1.86531e-13
4.07012e-12
9.8587e-11
-1.07574e-13
3.52601e-13
7.81551e-11
-4.9804e-14
8.23775e-14
6.17609e-11
-5.76587e-13
1.05129e-10
1.78607e-10
-5.71614e-13
6.76764e-12
1.4182e-10
-2.22206e-13
5.43499e-12
1.12586e-10
-1.24763e-13
5.56662e-13
8.97578e-11
-5.50455e-14
1.66479e-13
7.12553e-11
-2.8156e-14
1.06814e-14
5.63688e-11
-9.42633e-13
1.12515e-10
1.9816e-10
-7.39824e-13
9.81009e-12
1.58761e-10
-2.53259e-13
6.74056e-12
1.27318e-10
-1.39171e-13
7.83159e-13
1.02226e-10
-5.85763e-14
2.52722e-13
8.16211e-11
-2.98556e-14
2.20887e-14
6.48617e-11
-1.3958e-14
3.36149e-15
5.13162e-11
-1.40247e-12
1.15619e-10
2.16087e-10
-9.09201e-13
1.32604e-11
1.75373e-10
-2.73281e-13
7.93555e-12
1.42376e-10
-1.48036e-13
1.03423e-12
1.15321e-10
-5.95467e-14
3.39216e-13
9.2744e-11
-3.0419e-14
3.43741e-14
7.41211e-11
-1.41157e-14
6.66686e-15
5.89078e-11
-6.77009e-15
2.52203e-16
4.66074e-11
-1.80854e-12
1.1485e-10
2.31011e-10
-1.03429e-12
1.69e-11
1.90752e-10
-2.73059e-13
8.99412e-12
1.57139e-10
-1.48038e-13
1.31089e-12
1.2867e-10
-5.70345e-14
4.24213e-13
1.04401e-10
-2.94084e-14
4.75682e-14
8.40355e-11
-1.35817e-14
1.01006e-14
6.71681e-11
-6.54101e-15
4.80885e-16
5.33837e-11
-2.95722e-15
7.53009e-17
4.22363e-11
-1.91552e-12
1.10279e-10
2.41469e-10
-1.06518e-12
2.02279e-11
2.03786e-10
-2.44399e-13
9.868e-12
1.70805e-10
-1.36101e-13
1.60407e-12
1.41728e-10
-5.01803e-14
5.05429e-13
1.16263e-10
-2.63395e-14
6.1834e-14
9.44098e-11
-1.2137e-14
1.34034e-14
7.60014e-11
-5.88496e-15
8.02773e-16
6.07484e-11
-2.66455e-15
1.30711e-16
4.82809e-11
-1.17835e-15
-7.72955e-18
3.81988e-11
-1.33746e-12
1.03419e-10
2.46196e-10
-9.06858e-13
2.30525e-11
2.1326e-10
-1.74146e-13
1.05522e-11
1.82395e-10
-1.0897e-13
1.90336e-12
1.53787e-10
-3.81858e-14
5.80934e-13
1.27842e-10
-2.07166e-14
7.70081e-14
1.04948e-10
-9.54373e-15
1.66598e-14
8.52304e-11
-4.67118e-15
1.10572e-15
6.86136e-11
-2.125e-15
1.94959e-16
5.48427e-11
-9.43158e-16
-1.13945e-17
4.35869e-11
-3.92776e-16
1.95474e-17
3.44848e-11
-4.3955e-13
9.4392e-11
2.441e-10
-5.93855e-13
2.48734e-11
2.18011e-10
-7.04415e-14
1.09885e-11
1.90821e-10
-6.62701e-14
2.18392e-12
1.63981e-10
-2.05859e-14
6.48422e-13
1.38505e-10
-1.21053e-14
9.27921e-14
1.15214e-10
-5.54831e-15
1.9712e-14
9.45907e-11
-2.75941e-15
1.55263e-15
7.68208e-11
-1.26043e-15
2.34822e-16
6.18429e-11
-5.65779e-16
1.46848e-17
4.94305e-11
-2.36607e-16
-2.57069e-17
3.92853e-11
-9.87655e-17
3.18231e-18
3.10814e-11
9.21774e-16
2.24544e-11
9.53601e-11
-1.66702e-14
4.44866e-11
1.12313e-10
-1.2782e-13
4.71651e-13
8.80718e-11
-5.44542e-14
6.60061e-11
1.31047e-10
-1.88001e-13
1.41084e-12
1.02875e-10
-1.13792e-13
1.44568e-12
8.0014e-11
-1.29153e-13
8.57223e-11
1.5152e-10
-2.71845e-13
2.80597e-12
1.19193e-10
-1.492e-13
2.92689e-12
9.32019e-11
-9.21352e-14
1.83088e-13
7.35524e-11
-2.63818e-13
1.02417e-10
1.73315e-10
-3.85008e-13
4.81107e-12
1.3681e-10
-1.8984e-13
4.44589e-12
1.07696e-10
-1.13391e-13
3.88442e-13
8.53712e-11
-5.53213e-14
8.99483e-14
6.74621e-11
-4.85203e-13
1.15253e-10
1.95754e-10
-5.31697e-13
7.52754e-12
1.55395e-10
-2.33582e-13
5.95959e-12
1.23352e-10
-1.35356e-13
6.15278e-13
9.83349e-11
-6.29606e-14
1.82495e-13
7.80629e-11
-3.26055e-14
1.17766e-14
6.17536e-11
-8.11599e-13
1.23759e-10
2.17782e-10
-7.1012e-13
1.09212e-11
1.74424e-10
-2.76417e-13
7.41393e-12
1.39864e-10
-1.56071e-13
8.67225e-13
1.12292e-10
-6.92683e-14
2.77716e-13
8.96572e-11
-3.55905e-14
2.44609e-14
7.12472e-11
-1.68679e-14
3.65308e-15
5.63681e-11
-1.23792e-12
1.27864e-10
2.3808e-10
-9.06876e-13
1.48313e-11
1.93137e-10
-3.12261e-13
8.76252e-12
1.56778e-10
-1.72781e-13
1.14736e-12
1.26978e-10
-7.32921e-14
3.73949e-13
1.02118e-10
-3.75652e-14
3.79962e-14
8.16123e-11
-1.76423e-14
7.40334e-15
6.48612e-11
-8.47668e-15
2.54708e-16
5.13177e-11
-1.70389e-12
1.27446e-10
2.55084e-10
-1.09148e-12
1.88721e-11
2.10533e-10
-3.32881e-13
9.95268e-12
1.73416e-10
-1.82057e-13
1.45387e-12
1.41991e-10
-7.39677e-14
4.687e-13
1.15208e-10
-3.80558e-14
5.26875e-14
9.27344e-11
-1.77606e-14
1.11109e-14
7.41208e-11
-8.5563e-15
5.88203e-16
5.89095e-11
-3.87919e-15
7.19513e-17
4.66082e-11
-1.9961e-12
1.23082e-10
2.67164e-10
-1.20122e-12
2.26853e-11
2.25362e-10
-3.26384e-13
1.09564e-11
1.88871e-10
-1.79859e-13
1.78141e-12
1.56712e-10
-7.02042e-14
5.59779e-13
1.28554e-10
-3.65263e-14
6.84685e-14
1.0439e-10
-1.69927e-14
1.48892e-14
8.40356e-11
-8.22928e-15
8.63739e-16
6.71701e-11
-3.73808e-15
1.47465e-16
5.33846e-11
-1.65023e-15
-1.31928e-17
4.22368e-11
-1.88428e-12
1.15155e-10
2.72819e-10
-1.1795e-12
2.57273e-11
2.36242e-10
-2.83676e-13
1.17165e-11
2.02047e-10
-1.62904e-13
2.11213e-12
1.70351e-10
-6.104e-14
6.44581e-13
1.41612e-10
-3.24281e-14
8.53156e-14
1.16251e-10
-1.50753e-14
1.85006e-14
9.44102e-11
-7.36263e-15
1.26628e-15
7.60036e-11
-3.35215e-15
2.15798e-16
6.07495e-11
-1.48933e-15
-3.80105e-18
4.82814e-11
-6.19821e-16
8.63342e-19
3.8199e-11
-1.17828e-12
1.05009e-10
2.71027e-10
-9.5099e-13
2.77728e-11
2.41833e-10
-1.94188e-13
1.22081e-11
2.11728e-10
-1.28107e-13
2.42594e-12
1.81935e-10
-4.57225e-14
7.20532e-13
1.53672e-10
-2.52324e-14
1.02797e-13
1.2783e-10
-1.17476e-14
2.19511e-14
1.04949e-10
-5.80166e-15
1.66544e-15
8.52329e-11
-2.65925e-15
2.69483e-16
6.86149e-11
-1.18558e-15
-3.41026e-18
5.48433e-11
-4.98098e-16
2.13115e-17
4.35872e-11
-2.05173e-16
-2.44895e-17
3.4485e-11
-3.4095e-13
9.30205e-11
2.61239e-10
-5.84e-13
2.84426e-11
2.41115e-10
-7.51778e-14
1.23582e-11
2.16717e-10
-7.62078e-14
2.68959e-12
1.90392e-10
-2.40859e-14
7.84256e-13
1.63869e-10
-1.45656e-14
1.20188e-13
1.38492e-10
-6.74467e-15
2.51543e-14
1.15215e-10
-3.39842e-15
2.19585e-15
9.45935e-11
-1.56513e-15
3.25294e-16
7.68223e-11
-7.07136e-16
3.11462e-17
6.18436e-11
-2.99317e-16
-3.94334e-17
4.94308e-11
-1.24438e-16
1.69963e-17
3.92854e-11
-4.3753e-17
1.2629e-17
3.10815e-11
1.04378e-14
2.40657e-11
1.02226e-10
-1.94107e-15
4.78865e-11
1.20931e-10
-1.08544e-13
5.12338e-13
9.48285e-11
-3.16719e-14
7.13386e-11
1.41682e-10
-1.61724e-13
1.53845e-12
1.1122e-10
-1.072e-13
1.56174e-12
8.65035e-11
-9.3598e-14
9.29951e-11
1.64442e-10
-2.37262e-13
3.07369e-12
1.2935e-10
-1.43867e-13
3.17422e-12
1.01141e-10
-9.23978e-14
1.99931e-13
7.98144e-11
-2.08833e-13
1.11506e-10
1.88763e-10
-3.41955e-13
5.29436e-12
1.48989e-10
-1.87819e-13
4.84025e-12
1.17278e-10
-1.1647e-13
4.26048e-13
9.2962e-11
-5.983e-14
9.79551e-14
7.3459e-11
-4.00703e-13
1.25893e-10
2.13888e-10
-4.82023e-13
8.31213e-12
1.69764e-10
-2.37723e-13
6.51086e-12
1.34749e-10
-1.42679e-13
6.7741e-13
1.07414e-10
-6.99364e-14
1.99312e-13
8.52688e-11
-3.68136e-14
1.30009e-14
6.74533e-11
-6.88251e-13
1.35694e-10
2.38685e-10
-6.60474e-13
1.21113e-11
1.9112e-10
-2.90537e-13
8.13083e-12
1.53238e-10
-1.6933e-13
9.57881e-13
1.23023e-10
-7.92302e-14
3.04448e-13
9.82229e-11
-4.12156e-14
2.69693e-14
7.80533e-11
-1.9838e-14
4.04785e-15
6.17525e-11
-1.07488e-12
1.40686e-10
2.61648e-10
-8.70919e-13
1.64772e-11
2.1219e-10
-3.4091e-13
9.63971e-12
1.72227e-10
-1.93797e-13
1.26958e-12
1.39482e-10
-8.66738e-14
4.11008e-13
1.12172e-10
-4.47826e-14
4.2039e-14
8.96468e-11
-2.13198e-14
8.07505e-15
7.12465e-11
-1.02791e-14
3.17117e-16
5.63696e-11
-1.52688e-12
1.40954e-10
2.81031e-10
-1.08972e-12
2.10542e-11
2.31855e-10
-3.80603e-13
1.09898e-11
1.90957e-10
-2.12519e-13
1.61167e-12
1.56344e-10
-9.10503e-14
5.16688e-13
1.26853e-10
-4.69968e-14
5.82432e-14
1.02107e-10
-2.21978e-14
1.2314e-14
8.16118e-11
-1.07126e-14
6.15913e-16
6.4863e-11
-4.8747e-15
8.64753e-17
5.13186e-11
-1.94263e-12
1.3655e-10
2.94983e-10
-1.2733e-12
2.5299e-11
2.48729e-10
-3.99105e-13
1.2123e-11
2.08435e-10
-2.21254e-13
1.97493e-12
1.72937e-10
-9.10682e-14
6.18483e-13
1.41862e-10
-4.72689e-14
7.5786e-14
1.15196e-10
-2.22198e-14
1.64144e-14
9.27343e-11
-1.07645e-14
1.02553e-15
7.4123e-11
-4.90242e-15
1.51922e-16
5.89105e-11
-2.16619e-15
-6.63905e-18
4.66088e-11
-2.07397e-12
1.28245e-10
3.01813e-10
-1.34462e-12
2.87658e-11
2.61248e-10
-3.81912e-13
1.2999e-11
2.23418e-10
-2.15295e-13
2.34452e-12
1.88361e-10
-8.5458e-14
7.1374e-13
1.56583e-10
-4.49671e-14
9.44657e-14
1.2854e-10
-2.11087e-14
2.05195e-14
1.0439e-10
-1.02943e-14
1.38823e-15
8.4038e-11
-4.70365e-15
2.31425e-16
6.71713e-11
-2.08478e-15
-5.63768e-18
5.33853e-11
-8.71262e-16
2.59096e-17
4.22371e-11
-1.76508e-12
1.16741e-10
3.00312e-10
-1.25152e-12
3.09542e-11
2.67892e-10
-3.20767e-13
1.35456e-11
2.34539e-10
-1.91377e-13
2.69215e-12
2.01531e-10
-7.32417e-14
7.99126e-13
1.70224e-10
-3.94886e-14
1.13883e-13
1.41598e-10
-1.85598e-14
2.43831e-14
1.16252e-10
-9.14556e-15
1.87241e-15
9.4413e-11
-4.19327e-15
3.08512e-16
7.60051e-11
-1.87362e-15
-8.01981e-19
6.07502e-11
-7.84651e-16
-6.43161e-18
4.82817e-11
-3.23222e-16
-1.07776e-18
3.81992e-11
-1.01832e-12
1.0334e-10
2.90019e-10
-9.55798e-13
3.17029e-11
2.67469e-10
-2.1177e-13
1.37185e-11
2.40459e-10
-1.47193e-13
2.98771e-12
2.11237e-10
-5.38701e-14
8.708e-13
1.81814e-10
-3.03283e-14
1.33222e-13
1.53658e-10
-1.43011e-14
2.79724e-14
1.27831e-10
-7.14276e-15
2.39122e-15
1.04952e-10
-3.30389e-15
3.58727e-16
8.52345e-11
-1.48186e-15
1.88125e-17
6.86157e-11
-6.29283e-16
1.40013e-17
5.48436e-11
-2.5935e-16
-2.50985e-17
4.35873e-11
-8.96974e-17
3.46222e-17
3.4485e-11
-2.8171e-13
8.87415e-11
2.71398e-10
-5.53016e-13
3.08544e-11
2.5938e-10
-8.10288e-14
1.345e-11
2.40104e-10
-8.5208e-14
3.1923e-12
2.16299e-10
-2.77462e-14
9.23689e-13
1.9028e-10
-1.72499e-14
1.51232e-13
1.63856e-10
-8.0911e-15
3.12065e-14
1.38494e-10
-4.14025e-15
2.9962e-15
1.15218e-10
-1.92622e-15
4.27752e-16
9.45953e-11
-8.77899e-16
4.86915e-17
7.68232e-11
-3.75759e-16
-5.89891e-17
6.1844e-11
-1.56272e-16
2.88039e-17
4.9431e-11
-5.58022e-17
3.12858e-17
3.92855e-11
-2.03394e-17
1.35219e-17
3.10815e-11
1.82144e-14
2.56729e-11
1.09071e-10
1.03257e-14
5.1323e-11
1.29637e-10
-9.11088e-14
5.52384e-13
1.01656e-10
-1.22575e-14
7.67906e-11
1.52552e-10
-1.37347e-13
1.66593e-12
1.19753e-10
-9.88409e-14
1.68023e-12
9.31399e-11
-6.2823e-14
1.00507e-10
1.77785e-10
-2.04144e-13
3.34426e-12
1.39843e-10
-1.35526e-13
3.42934e-12
1.09344e-10
-9.06017e-14
2.17149e-13
8.62846e-11
-1.60062e-13
1.20965e-10
2.04859e-10
-2.9856e-13
5.78667e-12
1.61685e-10
-1.81099e-13
5.2498e-12
1.27268e-10
-1.16802e-13
4.6501e-13
1.00876e-10
-6.31032e-14
1.06231e-13
7.97114e-11
-3.25205e-13
1.37066e-10
2.32951e-10
-4.28273e-13
9.12629e-12
1.84878e-10
-2.35176e-13
7.08927e-12
1.46737e-10
-1.46557e-13
7.42627e-13
1.16965e-10
-7.56368e-14
2.17057e-13
9.28486e-11
-4.06098e-14
1.42674e-14
7.34485e-11
-5.75467e-13
1.48232e-10
2.60794e-10
-5.99106e-13
1.33461e-11
2.08793e-10
-2.95686e-13
8.88449e-12
1.67396e-10
-1.78506e-13
1.05393e-12
1.34381e-10
-8.80099e-14
3.32557e-13
1.0729e-10
-4.65361e-14
2.97333e-14
8.52574e-11
-2.27884e-14
4.36271e-15
6.74518e-11
-9.18128e-13
1.54277e-10
2.86756e-10
-8.10472e-13
1.82343e-11
2.32502e-10
-3.58318e-13
1.05735e-11
1.88695e-10
-2.10286e-13
1.40128e-12
1.52811e-10
-9.91419e-14
4.50583e-13
1.22889e-10
-5.18616e-14
4.6341e-14
9.82106e-11
-2.50743e-14
8.91792e-15
7.80522e-11
-1.21511e-14
3.21288e-16
6.17541e-11
-1.34053e-12
1.55137e-10
3.08841e-10
-1.04836e-12
2.33559e-11
2.54728e-10
-4.15764e-13
1.20919e-11
2.09773e-10
-2.38436e-13
1.7821e-12
1.7174e-10
-1.07681e-13
5.67976e-13
1.39342e-10
-5.60288e-14
6.4375e-14
1.12159e-10
-2.6824e-14
1.34598e-14
8.96461e-11
-1.29908e-14
7.34616e-16
7.12484e-11
-5.93492e-15
8.37626e-17
5.63705e-11
-1.77873e-12
1.51013e-10
3.24968e-10
-1.27603e-12
2.81697e-11
2.73918e-10
-4.57055e-13
1.33853e-11
2.29518e-10
-2.58358e-13
2.18773e-12
1.90418e-10
-1.12115e-13
6.81791e-13
1.562e-10
-5.83756e-14
8.37637e-14
1.26838e-10
-2.77718e-14
1.81471e-14
1.02106e-10
-1.34763e-14
1.09632e-15
8.16141e-11
-6.16206e-15
1.68589e-16
6.48642e-11
-2.72346e-15
-1.41747e-17
5.13192e-11
-2.09456e-12
1.42215e-10
3.33214e-10
-1.43662e-12
3.20401e-11
2.88334e-10
-4.69138e-13
1.43807e-11
2.46559e-10
-2.64976e-13
2.59828e-12
2.07861e-10
-1.10891e-13
7.88538e-13
1.72792e-10
-5.81945e-14
1.04503e-13
1.41846e-10
-2.76007e-14
2.26547e-14
1.15196e-10
-1.34661e-14
1.59676e-15
9.27369e-11
-6.16764e-15
2.5373e-16
7.41243e-11
-2.73798e-15
-7.99871e-19
5.89112e-11
-1.14572e-15
-1.71963e-18
4.6609e-11
-2.05042e-12
1.29782e-10
3.32192e-10
-1.44727e-12
3.45307e-11
2.96244e-10
-4.36064e-13
1.50175e-11
2.59345e-10
-2.53077e-13
2.98708e-12
2.22837e-10
-1.02628e-13
8.84633e-13
1.88219e-10
-5.47539e-14
1.26079e-13
1.56566e-10
-2.59915e-14
2.70101e-14
1.28541e-10
-1.27856e-14
2.07395e-15
1.04393e-10
-5.88526e-15
3.19817e-16
8.40396e-11
-2.62182e-15
8.4162e-18
6.71721e-11
-1.10324e-15
2.65168e-17
5.33856e-11
-4.5134e-16
-1.56298e-17
4.22372e-11
-1.59838e-12
1.14762e-10
3.21336e-10
-1.27412e-12
3.52959e-11
2.96288e-10
-3.53237e-13
1.52133e-11
2.66366e-10
-2.19901e-13
3.31544e-12
2.33989e-10
-8.64678e-14
9.65374e-13
2.01397e-10
-4.74493e-14
1.47593e-13
1.70207e-10
-2.26014e-14
3.10612e-14
1.41599e-10
-1.12606e-14
2.65922e-15
1.16256e-10
-5.20823e-15
4.20256e-16
9.44147e-11
-2.34373e-15
1.50545e-17
7.6006e-11
-9.89251e-16
-1.15755e-17
6.07506e-11
-4.09518e-16
1.18069e-17
4.82819e-11
-1.40875e-16
2.10245e-17
3.81992e-11
-8.75839e-13
9.85189e-11
3.0127e-10
-9.23692e-13
3.43532e-11
2.8774e-10
-2.26465e-13
1.49238e-11
2.66409e-10
-1.64765e-13
3.54588e-12
2.39981e-10
-6.23189e-14
1.02505e-12
2.11117e-10
-3.58769e-14
1.67698e-13
1.81798e-10
-1.71786e-14
3.4668e-14
1.5366e-10
-8.69936e-15
3.29004e-15
1.27835e-10
-4.06824e-15
4.62316e-16
1.04954e-10
-1.83926e-15
4.6823e-17
8.52355e-11
-7.9041e-16
-1.55912e-17
6.86161e-11
-3.26278e-16
-1.72328e-17
5.48438e-11
-1.13592e-16
6.90522e-17
4.35874e-11
-4.04086e-17
3.90671e-19
3.44851e-11
-2.47257e-13
8.20154e-11
2.73445e-10
-5.06894e-13
3.18351e-11
2.70924e-10
-8.7765e-14
1.41216e-11
2.58796e-10
-9.24983e-14
3.64082e-12
2.39748e-10
-3.14322e-14
1.05696e-12
2.16197e-10
-2.00467e-14
1.84603e-13
1.90267e-10
-9.55585e-15
3.77311e-14
1.63859e-10
-4.97805e-15
3.96169e-15
1.38498e-10
-2.34531e-15
5.4933e-16
1.1522e-10
-1.08052e-15
7.58741e-17
9.45964e-11
-4.67204e-16
-7.70092e-17
7.68236e-11
-1.95592e-16
5.12615e-17
6.18442e-11
-7.0654e-17
5.09999e-17
4.94311e-11
-2.52956e-17
3.90064e-17
3.92855e-11
-1.64091e-17
6.47952e-17
3.10816e-11
-1.30606e-15
-4.74579e-15
7.29846e-15
2.44385e-14
2.72519e-11
1.15794e-10
2.03597e-14
5.47505e-11
1.38318e-10
-7.56275e-14
5.91679e-13
1.08464e-10
3.93342e-15
8.2301e-11
1.63535e-10
-1.15299e-13
1.79245e-12
1.28375e-10
-8.93509e-14
1.79995e-12
9.98466e-11
-3.66149e-14
1.08187e-10
1.91425e-10
-1.73426e-13
3.61593e-12
1.50572e-10
-1.24952e-13
3.6898e-12
1.17733e-10
-8.69604e-14
2.34611e-13
9.29016e-11
-1.17921e-13
1.30734e-10
2.21482e-10
-2.57001e-13
6.2865e-12
1.74801e-10
-1.70592e-13
5.67216e-12
1.3759e-10
-1.14529e-13
5.04886e-13
1.09054e-10
-6.49816e-14
1.14754e-13
8.61717e-11
-2.58692e-13
1.48692e-10
2.52814e-10
-3.74148e-13
9.95936e-12
2.00633e-10
-2.26751e-13
7.68996e-12
1.59237e-10
-1.46976e-13
8.10208e-13
1.26923e-10
-7.9774e-14
2.35432e-13
1.00751e-10
-4.3821e-14
1.56136e-14
7.9699e-11
-4.74781e-13
1.61389e-10
2.84035e-10
-5.32642e-13
1.46299e-11
2.27381e-10
-2.92497e-13
9.67507e-12
1.82289e-10
-1.83365e-13
1.15481e-12
1.4633e-10
-9.51843e-14
3.62183e-13
1.16827e-10
-5.1335e-14
3.26219e-14
9.28351e-11
-2.56234e-14
4.82051e-15
7.34466e-11
-7.74574e-13
1.68549e-10
3.13313e-10
-7.35931e-13
2.00645e-11
2.54001e-10
-3.64685e-13
1.15556e-11
2.06128e-10
-2.2171e-13
1.54079e-12
1.6692e-10
-1.1013e-13
4.92278e-13
1.34233e-10
-5.85578e-14
5.10446e-14
1.07275e-10
-2.88037e-14
9.65466e-15
8.52559e-11
-1.40573e-14
3.82147e-16
6.74534e-11
-1.1543e-12
1.70156e-10
3.3847e-10
-9.77159e-13
2.58082e-11
2.79111e-10
-4.37086e-13
1.32652e-11
2.29832e-10
-2.58779e-13
1.96553e-12
1.88151e-10
-1.23176e-13
6.227e-13
1.52655e-10
-6.48871e-14
7.09509e-14
1.22873e-10
-3.15483e-14
1.48366e-14
9.82094e-11
-1.53563e-14
7.71767e-16
7.80541e-11
-7.05249e-15
9.84758e-17
6.17551e-11
-1.58467e-12
1.66256e-10
3.57114e-10
-1.23198e-12
3.1214e-11
3.00939e-10
-4.9984e-13
1.47297e-11
2.52133e-10
-2.89992e-13
2.4175e-12
2.0917e-10
-1.32604e-13
7.49559e-13
1.71579e-10
-6.9598e-14
9.25008e-14
1.39325e-10
-3.35583e-14
1.98891e-14
1.12158e-10
-1.63426e-14
1.27676e-15
8.96484e-11
-7.50096e-15
1.80143e-16
7.12496e-11
-3.32283e-15
-6.27253e-18
5.63711e-11
-1.9699e-12
1.5725e-10
3.67062e-10
-1.4496e-12
3.56208e-11
3.1753e-10
-5.3879e-13
1.58763e-11
2.71497e-10
-3.09597e-13
2.87641e-12
2.28874e-10
-1.36545e-13
8.6922e-13
1.90257e-10
-7.187e-14
1.15474e-13
1.56182e-10
-3.44988e-14
2.50055e-14
1.26838e-10
-1.68569e-14
1.74244e-15
1.02109e-10
-7.75397e-15
2.65096e-16
8.16155e-11
-3.44117e-15
-1.57696e-18
6.48649e-11
-1.4456e-15
2.35544e-17
5.13195e-11
-2.15134e-12
1.43842e-10
3.66727e-10
-1.56309e-12
3.84165e-11
3.26953e-10
-5.38765e-13
1.66102e-11
2.86207e-10
-3.11737e-13
3.30925e-12
2.45907e-10
-1.33225e-13
9.77221e-13
2.07703e-10
-7.08622e-14
1.39418e-13
1.72773e-10
-3.39847e-14
2.98469e-14
1.41847e-10
-1.6726e-14
2.33927e-15
1.15199e-10
-7.71535e-15
3.68406e-16
9.27386e-11
-3.44474e-15
3.62728e-18
7.41251e-11
-1.44913e-15
-1.3072e-17
5.89116e-11
-5.92919e-16
1.46355e-17
4.66092e-11
-1.94734e-12
1.27413e-10
3.55418e-10
-1.49714e-12
3.93061e-11
3.2764e-10
-4.84776e-13
1.68561e-11
2.94537e-10
-2.91157e-13
3.6772e-12
2.58726e-10
-1.21268e-13
1.06837e-12
2.22688e-10
-6.57869e-14
1.63373e-13
1.882e-10
-3.1656e-14
3.43861e-14
1.56568e-10
-1.57409e-14
2.95978e-15
1.28545e-10
-7.31141e-15
4.28455e-16
1.04395e-10
-3.2784e-15
4.03761e-17
8.40405e-11
-1.39112e-15
1.8283e-17
6.71725e-11
-5.70628e-16
-2.85357e-18
5.33858e-11
-1.98519e-16
4.18754e-17
4.22373e-11
-1.41586e-12
1.09332e-10
3.33784e-10
-1.24759e-12
3.82132e-11
3.18743e-10
-3.78999e-13
1.65437e-11
2.9511e-10
-2.46361e-13
3.9344e-12
2.65829e-10
-1.00174e-13
1.13596e-12
2.33856e-10
-5.61094e-14
1.85796e-13
2.01379e-10
-2.71606e-14
3.84712e-14
1.7021e-10
-1.37141e-14
3.64332e-15
1.41603e-10
-6.41273e-15
5.43038e-16
1.16258e-10
-2.911e-15
3.42349e-17
9.44158e-11
-1.23983e-15
-2.98942e-17
7.60064e-11
-5.16585e-16
2.25386e-17
6.07508e-11
-1.78373e-16
4.95826e-17
4.8282e-11
-6.20692e-17
1.36752e-17
3.81993e-11
-7.53959e-13
9.10229e-11
3.0352e-10
-8.62248e-13
3.54194e-11
3.00559e-10
-2.37489e-13
1.56659e-11
2.87148e-10
-1.79266e-13
4.04362e-12
2.65998e-10
-7.06295e-14
1.17254e-12
2.39872e-10
-4.16478e-14
2.04754e-13
2.11102e-10
-2.03103e-14
4.18846e-14
1.81802e-10
-1.04569e-14
4.36956e-15
1.53664e-10
-4.95444e-15
5.91952e-16
1.27837e-10
-2.26366e-15
8.4992e-17
1.04955e-10
-9.84846e-16
-5.23024e-17
8.5236e-11
-4.07874e-16
1.61052e-17
6.86163e-11
-1.43411e-16
1.00599e-16
5.48439e-11