/*--------------------------------*- C++ -*----------------------------------*\
  =========                 |
  \\      /  F ield         | OpenFOAM: The Open Source CFD Toolbox
   \\    /   O peration     | Website:  https://openfoam.org
    \\  /    A nd           | Version:  7
     \\/     M anipulation  |
\*---------------------------------------------------------------------------*/
FoamFile
{
    version     2.0;
    format      ascii;
    class       volVectorField;
    location    "409";
    object      U;
}
// * * * * * * * * * * * * * * * * * * * * * * * * * * * * * * * * * * * * * //

dimensions      [0 1 -1 0 0 0 0];

internalField   nonuniform List<vector> 
43941
(
(0.62591 0.000252489 0.00178812)
(0.628524 -0.000593418 0.00200345)
(0.62632 0.00020207 0.00560874)
(0.646953 -0.000189708 9.05137e-06)
(0.629244 -0.000372334 0.00204018)
(0.628865 -0.000638473 0.00627532)
(0.647284 -0.000495425 1.77944e-05)
(0.627172 6.55467e-05 0.00988335)
(0.646905 -0.00019187 6.38352e-05)
(0.627368 -2.7825e-05 0.000106456)
(0.630603 -0.000725092 0.00207456)
(0.629587 -0.000421002 0.00639348)
(0.64745 -0.000661656 1.81137e-05)
(0.629562 -0.000766407 0.0110081)
(0.647228 -0.00049814 9.22331e-05)
(0.627414 -8.88359e-05 0.000108159)
(0.628483 -0.000153253 0.0147295)
(0.646808 -0.000198302 0.000228171)
(0.627369 -2.77044e-05 0.000340362)
(0.626365 -1.82891e-05 1.17854e-05)
(0.631506 -0.000576844 0.00207822)
(0.630941 -0.000762269 0.00650217)
(0.647694 -0.000851863 2.27808e-05)
(0.630286 -0.000546388 0.0112256)
(0.647393 -0.000664138 9.39753e-05)
(0.627459 -0.000154998 0.000108762)
(0.630616 -0.000976858 0.0162628)
(0.647116 -0.000506031 0.000280038)
(0.627415 -8.86649e-05 0.000345765)
(0.626368 -5.32066e-05 1.17654e-05)
(0.6302 -0.000403855 0.0200352)
(0.646628 -0.000210046 0.000534811)
(0.627372 -2.75286e-05 0.000616802)
(0.626363 -1.82974e-05 3.91577e-05)
(0.62504 -5.68575e-06 5.68512e-06)
(0.632396 -0.000587594 0.00208385)
(0.631844 -0.00060899 0.00651508)
(0.647865 -0.000914935 2.42648e-05)
(0.631627 -0.000857704 0.0114194)
(0.647637 -0.000853357 0.000108772)
(0.627534 -0.000220776 0.000109419)
(0.631331 -0.000759666 0.0165912)
(0.647279 -0.000671101 0.000285418)
(0.62746 -0.000154978 0.000347707)
(0.626374 -8.77738e-05 1.17754e-05)
(0.631994 -0.00122339 0.0218319)
(0.646911 -0.000520579 0.000612074)
(0.627416 -8.8401e-05 0.000626319)
(0.626366 -5.32167e-05 3.90924e-05)
(0.625042 -1.81729e-05 5.72066e-06)
(0.632155 -0.000602797 0.0256309)
(0.646316 -0.000225913 0.0010571)
(0.627374 -2.72415e-05 0.000946011)
(0.626359 -1.83209e-05 7.56349e-05)
(0.62504 -5.68129e-06 1.82818e-05)
(0.624974 -3.33689e-06 6.7724e-07)
(0.633057 -0.000474489 0.00208382)
(0.632732 -0.000614331 0.00653342)
(0.64804 -0.000954218 2.72043e-05)
(0.632527 -0.000690126 0.0114474)
(0.647807 -0.000916238 0.000113653)
(0.627614 -0.000276095 0.00010964)
(0.632645 -0.00102166 0.0168818)
(0.647521 -0.000857813 0.000311832)
(0.627534 -0.000220772 0.000349826)
(0.626385 -0.000122678 1.18747e-05)
(0.632684 -0.00103821 0.0222684)
(0.64707 -0.000684094 0.000623494)
(0.627461 -0.000155019 0.00062986)
(0.626372 -8.77661e-05 3.91266e-05)
(0.625045 -3.23628e-05 5.735e-06)
(0.633578 -0.00142012 0.0274709)
(0.646561 -0.000540769 0.00115783)
(0.627418 -8.79587e-05 0.000959747)
(0.626361 -5.32451e-05 7.55206e-05)
(0.625042 -1.81655e-05 1.83944e-05)
(0.624974 -1.02718e-05 6.72852e-07)
(0.634036 -0.000680789 0.0313141)
(0.645804 -0.000241427 0.00187273)
(0.627374 -2.67193e-05 0.00132975)
(0.62635 -1.83682e-05 0.000123483)
(0.62504 -5.67064e-06 3.34574e-05)
(0.624974 -3.33661e-06 2.22342e-06)
(0.624945 -1.57812e-06 1.98212e-07)
(0.633582 -0.000400198 0.00208426)
(0.633392 -0.00049785 0.00653395)
(0.64818 -0.000927388 2.91008e-05)
(0.633412 -0.000681754 0.0114821)
(0.647982 -0.000955181 0.000122957)
(0.627708 -0.00032552 0.000109897)
(0.633539 -0.000830404 0.0169321)
(0.647691 -0.000920019 0.000321188)
(0.627615 -0.000276126 0.000350577)
(0.626399 -0.000155398 1.1967e-05)
(0.633947 -0.00124025 0.0226608)
(0.647307 -0.000866228 0.000663389)
(0.627536 -0.000220821 0.000633725)
(0.626382 -0.000122659 3.94374e-05)
(0.62505 -4.76558e-05 5.74644e-06)
(0.634227 -0.00131988 0.0279918)
(0.646713 -0.000702881 0.00117809)
(0.627463 -0.00015512 0.000965116)
(0.626367 -8.77547e-05 7.55922e-05)
(0.625045 -3.23591e-05 1.84412e-05)
(0.624975 -1.78078e-05 6.74575e-07)
(0.635123 -0.00148354 0.0329746)
(0.646003 -0.000561347 0.00199013)
(0.627416 -8.71577e-05 0.00134706)
(0.626352 -5.33013e-05 0.000123342)
(0.625041 -1.8149e-05 3.36559e-05)
(0.624974 -1.02713e-05 2.21011e-06)
(0.624946 -4.92038e-06 2.01575e-07)
(0.635431 -0.000625945 0.0368367)
(0.645015 -0.000250236 0.00303707)
(0.627365 -2.57661e-05 0.00176775)
(0.626334 -1.84436e-05 0.000185873)
(0.625039 -5.64978e-06 5.18285e-05)
(0.624974 -3.3369e-06 4.21258e-06)
(0.624945 -1.57885e-06 6.3704e-07)
(0.62497 -8.26269e-07 1.35529e-08)
(0.633958 -0.000305258 0.00208367)
(0.633916 -0.000420584 0.00653569)
(0.648305 -0.000877802 3.10057e-05)
(0.63407 -0.000556474 0.0114853)
(0.648122 -0.000928278 0.000129001)
(0.627804 -0.000361649 0.000109952)
(0.634414 -0.000798565 0.0169872)
(0.647866 -0.000958072 0.000337789)
(0.627709 -0.000325554 0.00035143)
(0.626419 -0.000185779 1.2098e-05)
(0.634826 -0.00102184 0.0227423)
(0.647477 -0.000927154 0.000678755)
(0.627616 -0.000276239 0.000635213)
(0.626397 -0.000155375 3.97279e-05)
(0.625057 -6.38521e-05 5.75044e-06)
(0.63541 -0.00146936 0.0284784)
(0.646943 -0.000878289 0.00123304)
(0.627537 -0.000220927 0.000970997)
(0.626378 -0.00012262 7.61344e-05)
(0.62505 -4.76531e-05 1.84781e-05)
(0.624976 -2.59499e-05 6.74966e-07)
(0.635725 -0.00152311 0.0335365)
(0.646145 -0.000723687 0.00202168)
(0.627462 -0.000155192 0.00135433)
(0.626358 -8.77361e-05 0.000123472)
(0.625044 -3.23511e-05 3.37427e-05)
(0.624975 -1.78063e-05 2.21481e-06)
(0.624946 -8.617e-06 2.00693e-07)
(0.636251 -0.00138379 0.0381665)
(0.645164 -0.00057367 0.00316076)
(0.627406 -8.57e-05 0.00178702)
(0.626336 -5.3388e-05 0.00018576)
(0.62504 -1.81174e-05 5.21156e-05)
(0.624974 -1.02712e-05 4.19094e-06)
(0.624946 -4.92093e-06 6.46729e-07)
(0.62497 -2.55502e-06 1.13285e-08)
(0.63589 -0.000488371 0.0419003)
(0.643862 -0.000247823 0.00456134)
(0.627335 -2.42003e-05 0.00225849)
(0.626307 -1.85379e-05 0.000266212)
(0.625037 -5.61456e-06 7.36785e-05)
(0.624973 -3.33838e-06 6.75295e-06)
(0.624945 -1.57935e-06 1.16501e-06)
(0.62497 -8.25786e-07 4.53233e-08)
(0.624983 -3.96148e-07 3.33799e-09)
(0.634226 -0.000223313 0.00208321)
(0.634292 -0.000323379 0.00653412)
(0.648406 -0.000802718 3.2373e-05)
(0.634593 -0.000471671 0.0114896)
(0.648247 -0.000878596 0.000135037)
(0.627902 -0.000387189 0.000109999)
(0.635067 -0.000658133 0.0169951)
(0.648006 -0.00093089 0.000348723)
(0.627805 -0.000361697 0.00035165)
(0.626442 -0.000211998 1.22266e-05)
(0.635683 -0.000958892 0.0228222)
(0.647651 -0.000963564 0.000703916)
(0.62771 -0.000325667 0.000636851)
(0.626416 -0.000185754 4.01413e-05)
(0.625067 -8.04697e-05 5.75729e-06)
(0.636263 -0.00123289 0.0286003)
(0.647111 -0.000937527 0.00125648)
(0.627617 -0.000276457 0.000973443)
(0.626392 -0.000155331 7.66491e-05)
(0.625057 -6.38499e-05 1.84931e-05)
(0.624979 -3.4596e-05 6.79459e-07)
(0.636802 -0.00164699 0.034093)
(0.646362 -0.000891053 0.00209243)
(0.627535 -0.000221021 0.00136237)
(0.626368 -0.000122551 0.000124276)
(0.625049 -4.76476e-05 3.38102e-05)
(0.624976 -2.59478e-05 2.21656e-06)
(0.624947 -1.26724e-05 2.03159e-07)
(0.6368 -0.00158925 0.0387168)
(0.645292 -0.00073904 0.00320474)
(0.627451 -0.000154974 0.00179594)
(0.626342 -8.76999e-05 0.000185986)
(0.625043 -3.23358e-05 5.2249e-05)
(0.624975 -1.78042e-05 4.19707e-06)
(0.624946 -8.61758e-06 6.44736e-07)
(0.62497 -4.46137e-06 1.31775e-08)
(0.636509 -0.00116495 0.0428481)
(0.643966 -0.000569947 0.00468081)
(0.627373 -8.32549e-05 0.00227736)
(0.62631 -5.34872e-05 0.000266216)
(0.625039 -1.80641e-05 7.40412e-05)
(0.624974 -1.02721e-05 6.72422e-06)
(0.624946 -4.92121e-06 1.17926e-06)
(0.62497 -2.5549e-06 3.90375e-08)
(0.624983 -1.24297e-06 4.16169e-09)
(0.635032 -0.000336296 0.0461604)
(0.642269 -0.000234325 0.00639558)
(0.627263 -2.20397e-05 0.002797)
(0.626266 -1.86202e-05 0.00036736)
(0.625034 -5.56256e-06 9.92046e-05)
(0.624973 -3.34139e-06 9.97089e-06)
(0.624945 -1.57911e-06 1.80368e-06)
(0.62497 -8.25453e-07 8.82357e-08)
(0.624983 -3.96834e-07 1.04784e-08)
(0.624993 -1.96364e-07 -3.57244e-11)
(0.634407 -0.000145436 0.00208265)
(0.63456 -0.000239527 0.00653283)
(0.648489 -0.000719397 3.34463e-05)
(0.634967 -0.000368699 0.0114877)
(0.648348 -0.000803474 0.00013937)
(0.627994 -0.000399603 0.000109964)
(0.635586 -0.000560264 0.017003)
(0.648131 -0.000880918 0.00035951)
(0.627902 -0.000387238 0.000351835)
(0.62647 -0.000233576 1.23562e-05)
(0.636327 -0.000798416 0.0228376)
(0.647791 -0.000935856 0.000720763)
(0.627806 -0.000361834 0.000637384)
(0.62644 -0.000211975 4.05467e-05)
(0.625079 -9.69324e-05 5.75721e-06)
(0.637093 -0.00113794 0.0287091)
(0.647284 -0.00097153 0.00129149)
(0.627711 -0.000325885 0.000976067)
(0.626411 -0.000185702 7.73807e-05)
(0.625067 -8.04677e-05 1.85154e-05)
(0.624982 -4.36295e-05 6.81952e-07)
(0.637615 -0.00141665 0.034261)
(0.646528 -0.000948959 0.00212643)
(0.627615 -0.000276753 0.001366)
(0.626383 -0.000155248 0.000125051)
(0.625057 -6.38458e-05 3.38436e-05)
(0.624979 -3.45933e-05 2.2299e-06)
(0.624948 -1.70647e-05 2.01444e-07)
(0.637751 -0.00172397 0.0393013)
(0.645492 -0.000898693 0.00329056)
(0.627523 -0.000220886 0.00180606)
(0.626352 -0.000122429 0.000187077)
(0.625049 -4.76376e-05 5.23517e-05)
(0.624976 -2.59447e-05 4.20164e-06)
(0.624947 -1.26724e-05 6.5162e-07)
(0.62497 -6.54675e-06 1.20828e-08)
(0.637004 -0.00151526 0.0433374)
(0.644076 -0.000740611 0.00473651)
(0.627418 -0.000154006 0.00228732)
(0.626315 -8.76201e-05 0.000266594)
(0.625042 -3.23092e-05 7.42232e-05)
(0.624974 -1.78017e-05 6.73041e-06)
(0.624946 -8.6181e-06 1.17816e-06)
(0.62497 -4.46119e-06 4.40973e-08)
(0.624983 -2.16928e-06 3.74809e-09)
(0.635504 -0.000907668 0.0467638)
(0.642334 -0.00054784 0.00650325)
(0.627299 -7.97039e-05 0.00281314)
(0.626268 -5.35454e-05 0.000367577)
(0.625036 -1.7984e-05 9.96089e-05)
(0.624973 -1.02746e-05 9.93777e-06)
(0.624946 -4.92072e-06 1.82074e-06)
(0.62497 -2.55485e-06 7.93943e-08)
(0.624983 -1.24323e-06 1.26566e-08)
(0.624993 -5.95615e-07 -7.82179e-10)
(0.632668 -0.0002136 0.0492698)
(0.640182 -0.000213519 0.00841986)
(0.627121 -1.96326e-05 0.003371)
(0.626204 -1.86421e-05 0.000490689)
(0.62503 -5.49598e-06 0.000128517)
(0.624972 -3.34599e-06 1.39984e-05)
(0.624945 -1.578e-06 2.56234e-06)
(0.62497 -8.25551e-07 1.44937e-07)
(0.624983 -3.9757e-07 1.87488e-08)
(0.624993 -1.95736e-07 2.79173e-10)
(0.624998 -8.47261e-08 -5.89772e-10)
(0.634526 -7.78991e-05 0.00208217)
(0.63474 -0.000160079 0.00653115)
(0.648553 -0.000632002 3.41981e-05)
(0.635234 -0.000280032 0.011486)
(0.648431 -0.000720108 0.000142765)
(0.62808 -0.000400623 0.000109918)
(0.635958 -0.000447277 0.0170012)
(0.648232 -0.000805643 0.000367266)
(0.627995 -0.000399654 0.000351759)
(0.626501 -0.000249467 1.24736e-05)
(0.636837 -0.000682696 0.0228502)
(0.647916 -0.000885343 0.000737139)
(0.627903 -0.000387372 0.000637824)
(0.626468 -0.000233555 4.09566e-05)
(0.625094 -0.000112636 5.76062e-06)
(0.637721 -0.000957132 0.0287356)
(0.647424 -0.000943148 0.00131542)
(0.627807 -0.000362097 0.000977076)
(0.626435 -0.000211927 7.80975e-05)
(0.625079 -9.69309e-05 1.85176e-05)
(0.624986 -5.28655e-05 6.88537e-07)
(0.638405 -0.00129874 0.0344014)
(0.646698 -0.000980197 0.00217252)
(0.627708 -0.000326194 0.00136982)
(0.626402 -0.000185607 0.000126148)
(0.625066 -8.04644e-05 3.38848e-05)
(0.624982 -4.36265e-05 2.23835e-06)
(0.624949 -2.17681e-05 2.03886e-07)
(0.63851 -0.00153311 0.0395138)
(0.645653 -0.000956892 0.00333753)
(0.627602 -0.000276974 0.00181106)
(0.626366 -0.000155103 0.000188152)
(0.625056 -6.38386e-05 5.24106e-05)
(0.624978 -3.45892e-05 4.22275e-06)
(0.624948 -1.70643e-05 6.47162e-07)
(0.624971 -8.81388e-06 1.41926e-08)
(0.637818 -0.00168814 0.0438993)
(0.644256 -0.00089447 0.00483468)
(0.627488 -0.000220119 0.00229911)
(0.626325 -0.000122221 0.000267993)
(0.625047 -4.76203e-05 7.43632e-05)
(0.624976 -2.59407e-05 6.7393e-06)
(0.624947 -1.26723e-05 1.18769e-06)
(0.62497 -6.54642e-06 4.12437e-08)
(0.624983 -3.19552e-06 4.05791e-09)
(0.635942 -0.00134514 0.0471629)
(0.642426 -0.000723585 0.00656808)
(0.627343 -0.00015181 0.00282324)
(0.626273 -8.74449e-05 0.000368171)
(0.625039 -3.22667e-05 9.98315e-05)
(0.624974 -1.77988e-05 9.94272e-06)
(0.624946 -8.61815e-06 1.82232e-06)
(0.62497 -4.46088e-06 8.59841e-08)
(0.624983 -2.16935e-06 1.1674e-08)
(0.624993 -1.043e-06 -3.98855e-10)
(0.633029 -0.000676997 0.0496157)
(0.640219 -0.000510857 0.00851227)
(0.627155 -7.53985e-05 0.0033829)
(0.626205 -5.34762e-05 0.00049118)
(0.625031 -1.78778e-05 0.000128911)
(0.624972 -1.02788e-05 1.39642e-05)
(0.624945 -4.91904e-06 2.57992e-06)
(0.62497 -2.55497e-06 1.35006e-07)
(0.624983 -1.2435e-06 2.11423e-08)
(0.624993 -5.95208e-07 -1.73864e-09)
(0.624998 -2.72033e-07 9.82355e-10)
(0.628859 -0.000132973 0.0509395)
(0.637597 -0.000189723 0.0104504)
(0.626878 -1.75327e-05 0.00395643)
(0.626113 -1.85582e-05 0.000634937)
(0.625021 -5.42307e-06 0.000161516)
(0.62497 -3.35176e-06 1.89469e-05)
(0.624945 -1.5761e-06 3.4475e-06)
(0.62497 -8.261e-07 2.19535e-07)
(0.624983 -3.98182e-07 2.87917e-08)
(0.624993 -1.95063e-07 1.31972e-09)
(0.624998 -8.56608e-08 -1.95025e-09)
(0.625 -4.23671e-08 1.54343e-10)
(0.634601 -1.93939e-05 0.00208174)
(0.634859 -9.1213e-05 0.00652971)
(0.648602 -0.000547055 3.47208e-05)
(0.635414 -0.000196628 0.0114833)
(0.648496 -0.000632676 0.000145136)
(0.628156 -0.000390763 0.000109844)
(0.636222 -0.000350235 0.0169989)
(0.648315 -0.000722126 0.000373319)
(0.628081 -0.000400672 0.000351637)
(0.626534 -0.000259369 1.25736e-05)
(0.637204 -0.000555995 0.0228489)
(0.648018 -0.00080978 0.000748942)
(0.627996 -0.000399792 0.000637793)
(0.626498 -0.00024945 4.1327e-05)
(0.625111 -0.00012687 5.75842e-06)
(0.638219 -0.000821804 0.0287543)
(0.647549 -0.000891899 0.00133825)
(0.627904 -0.000387633 0.000977899)
(0.626463 -0.000233513 7.88264e-05)
(0.625094 -0.000112635 1.85289e-05)
(0.624992 -6.20635e-05 6.92999e-07)
(0.639011 -0.00110411 0.0344429)
(0.646838 -0.000951376 0.00220483)
(0.627803 -0.000362493 0.00137151)
(0.626426 -0.000211839 0.000127221)
(0.625079 -9.69285e-05 3.3896e-05)
(0.624986 -5.28625e-05 2.25832e-06)
(0.624951 -2.67157e-05 2.01661e-07)
(0.63925 -0.00140976 0.0396849)
(0.64582 -0.000985909 0.00339568)
(0.627695 -0.000326478 0.00181624)
(0.626386 -0.000185442 0.000189654)
(0.625066 -8.0459e-05 5.24747e-05)
(0.624982 -4.3622e-05 4.23934e-06)
(0.624949 -2.17667e-05 6.53894e-07)
(0.624971 -1.12512e-05 1.29674e-08)
(0.638512 -0.00156591 0.0441458)
(0.644409 -0.000955759 0.00489604)
(0.627567 -0.000276792 0.00230556)
(0.62634 -0.000154859 0.000269409)
(0.625054 -6.38264e-05 7.44543e-05)
(0.624978 -3.45838e-05 6.76738e-06)
(0.624948 -1.70637e-05 1.18265e-06)
(0.624971 -8.8128e-06 4.70496e-08)
(0.624984 -4.31018e-06 3.49334e-09)
(0.63662 -0.00156326 0.0476594)
(0.642581 -0.000873961 0.00667395)
(0.62741 -0.00021824 0.00283598)
(0.626283 -0.000121872 0.000369894)
(0.625044 -4.75917e-05 0.000100007)
(0.624975 -2.59354e-05 9.95726e-06)
(0.624947 -1.2672e-05 1.83289e-06)
(0.62497 -6.54593e-06 8.27521e-08)
(0.624983 -3.19525e-06 1.22922e-08)
(0.624993 -1.52978e-06 -6.27483e-10)
(0.633404 -0.00113759 0.0499186)
(0.640293 -0.000688574 0.00858241)
(0.627197 -0.000148217 0.00339222)
(0.62621 -8.70964e-05 0.00049205)
(0.625034 -3.22049e-05 0.000129155)
(0.624973 -1.77955e-05 1.39678e-05)
(0.624946 -8.61742e-06 2.58555e-06)
(0.62497 -4.46043e-06 1.4154e-07)
(0.624983 -2.16946e-06 2.05586e-08)
(0.624993 -1.04253e-06 -7.90263e-10)
(0.624998 -4.70747e-07 2.88136e-11)
(0.629133 -0.00050226 0.0511189)
(0.637616 -0.000465053 0.0105273)
(0.626908 -7.11051e-05 0.00396374)
(0.626114 -5.31897e-05 0.0006357)
(0.625023 -1.77555e-05 0.000161844)
(0.62497 -1.02843e-05 1.89151e-05)
(0.624945 -4.91598e-06 3.46367e-06)
(0.62497 -2.55534e-06 2.10204e-07)
(0.624983 -1.24367e-06 3.05062e-08)
(0.624993 -5.94754e-07 -1.06516e-09)
(0.624998 -2.73028e-07 2.3645e-09)
(0.625 -1.21523e-07 -1.06425e-09)
(0.623919 -8.78545e-05 0.0509948)
(0.63458 -0.000166072 0.012264)
(0.626503 -1.6187e-05 0.00451465)
(0.625988 -1.83483e-05 0.000794936)
(0.625009 -5.35731e-06 0.000197674)
(0.624967 -3.35805e-06 2.48706e-05)
(0.624945 -1.57381e-06 4.46237e-06)
(0.62497 -8.26983e-07 3.16087e-07)
(0.624983 -3.98613e-07 4.06084e-08)
(0.624993 -1.9452e-07 2.77798e-09)
(0.624998 -8.66252e-08 -3.53977e-09)
(0.625 -4.18473e-08 8.22946e-10)
(0.625002 -1.56328e-08 5.17254e-10)
(0.634647 2.96255e-05 0.00208139)
(0.634934 -3.15822e-05 0.00652838)
(0.648636 -0.000467096 3.50745e-05)
(0.635533 -0.000124427 0.0114809)
(0.648544 -0.000547689 0.00014678)
(0.628223 -0.000372042 0.000109767)
(0.636401 -0.000259953 0.0169951)
(0.64838 -0.000634567 0.000377527)
(0.628157 -0.000390809 0.000351424)
(0.626567 -0.000263016 1.26551e-05)
(0.637466 -0.000447385 0.0228462)
(0.648101 -0.000725979 0.000758116)
(0.628082 -0.000400803 0.000637655)
(0.626531 -0.000259356 4.16437e-05)
(0.62513 -0.000138985 5.7591e-06)
(0.638579 -0.000679949 0.0287543)
(0.647651 -0.00081598 0.00135476)
(0.627996 -0.000400058 0.00097801)
(0.626494 -0.000249416 7.94828e-05)
(0.625111 -0.00012687 1.85242e-05)
(0.624999 -7.09324e-05 7.00538e-07)
(0.639493 -0.000952049 0.0344693)
(0.646963 -0.000899469 0.00223495)
(0.6279 -0.000388036 0.00137288)
(0.626454 -0.000233435 0.000128318)
(0.625094 -0.000112634 3.39181e-05)
(0.624992 -6.20607e-05 2.27289e-06)
(0.624954 -3.18276e-05 2.04016e-07)
(0.639828 -0.00121372 0.039745)
(0.645958 -0.000957584 0.00343764)
(0.627789 -0.000362945 0.00181884)
(0.626409 -0.000211687 0.000191125)
(0.625078 -9.69249e-05 5.25018e-05)
(0.624986 -5.28578e-05 4.27231e-06)
(0.624951 -2.67135e-05 6.47983e-07)
(0.624972 -1.38468e-05 1.4764e-08)
(0.639191 -0.00145767 0.0443428)
(0.644569 -0.000984226 0.00496658)
(0.627658 -0.000326472 0.00231218)
(0.626359 -0.000185169 0.000271346)
(0.625064 -8.045e-05 7.4545e-05)
(0.624981 -4.36157e-05 6.79439e-06)
(0.624949 -2.17649e-05 1.19173e-06)
(0.624971 -1.12493e-05 4.3867e-08)
(0.624984 -5.52341e-06 3.83166e-09)
(0.637238 -0.00152337 0.0479221)
(0.642724 -0.000941337 0.00674926)
(0.627487 -0.000275766 0.0028438)
(0.626297 -0.000154459 0.000371691)
(0.625052 -6.38058e-05 0.000100133)
(0.624977 -3.45765e-05 9.99103e-06)
(0.624948 -1.7063e-05 1.82922e-06)
(0.624971 -8.81139e-06 9.05143e-08)
(0.624984 -4.30994e-06 1.09911e-08)
(0.624993 -2.06668e-06 -2.80483e-10)
(0.633956 -0.00138999 0.0503267)
(0.640422 -0.000836855 0.00869044)
(0.627261 -0.000214946 0.003405)
(0.62622 -0.000121304 0.000494099)
(0.625039 -4.75479e-05 0.000129357)
(0.624974 -2.59284e-05 1.39882e-05)
(0.624947 -1.26712e-05 2.59541e-06)
(0.62497 -6.54528e-06 1.39147e-07)
(0.624983 -3.19493e-06 2.04592e-08)
(0.624993 -1.52938e-06 -1.21037e-09)
(0.624998 -6.96944e-07 1.05417e-09)
(0.629443 -0.00093849 0.0513368)
(0.637674 -0.00064018 0.0105985)
(0.626948 -0.000143549 0.00397161)
(0.626119 -8.64893e-05 0.000636874)
(0.625026 -3.2124e-05 0.000162082)
(0.624971 -1.77913e-05 1.89181e-05)
(0.624946 -8.61566e-06 3.47335e-06)
(0.62497 -4.45985e-06 2.15043e-07)
(0.624983 -2.16959e-06 3.10639e-08)
(0.624993 -1.04193e-06 -3.40707e-10)
(0.624998 -4.71952e-07 -1.38628e-10)
(0.625 -2.15014e-07 -3.60877e-11)
(0.624125 -0.000383701 0.0510792)
(0.634588 -0.000416175 0.012327)
(0.626529 -6.76012e-05 0.00451802)
(0.625989 -5.26327e-05 0.000795905)
(0.62501 -1.76361e-05 0.000197895)
(0.624968 -1.02904e-05 2.48437e-05)
(0.624945 -4.91175e-06 4.47569e-06)
(0.62497 -2.556e-06 3.08351e-07)
(0.624983 -1.24368e-06 4.10484e-08)
(0.624993 -5.94402e-07 7.08052e-10)
(0.624998 -2.74163e-07 2.00392e-09)
(0.625 -1.21542e-07 -2.50225e-09)
(0.625002 -4.75159e-08 1.29566e-09)
(0.618337 -6.59304e-05 0.0494248)
(0.631263 -0.000144348 0.0136411)
(0.625978 -1.57383e-05 0.00499407)
(0.625822 -1.80257e-05 0.000960663)
(0.624989 -5.31389e-06 0.000235762)
(0.624963 -3.36412e-06 3.17201e-05)
(0.624945 -1.5715e-06 5.6039e-06)
(0.624969 -8.27954e-07 4.38377e-07)
(0.624983 -3.98987e-07 5.45831e-08)
(0.624993 -1.94186e-07 4.93999e-09)
(0.624998 -8.73082e-08 -5.30068e-09)
(0.625 -4.13504e-08 2.11463e-09)
(0.625002 -1.58402e-08 1.78005e-09)
(0.625002 -7.16502e-09 4.89221e-10)
(0.634673 7.00806e-05 0.0020811)
(0.63498 1.83999e-05 0.0065273)
(0.648658 -0.000394112 3.53067e-05)
(0.635608 -6.1975e-05 0.0114786)
(0.648578 -0.000467691 0.000147885)
(0.628278 -0.000346338 0.000109688)
(0.636519 -0.000181953 0.0169915)
(0.648428 -0.000549454 0.000380431)
(0.628223 -0.000372084 0.000351197)
(0.626601 -0.000260623 1.2716e-05)
(0.637643 -0.000347587 0.0228409)
(0.648166 -0.000638178 0.000764473)
(0.628158 -0.000390932 0.000637341)
(0.626565 -0.000263006 4.19011e-05)
(0.625151 -0.000148362 5.75575e-06)
(0.638835 -0.00055828 0.0287511)
(0.647734 -0.000731804 0.00136754)
(0.628082 -0.000401058 0.000977921)
(0.626526 -0.00025933 8.0047e-05)
(0.62513 -0.000138985 1.85267e-05)
(0.625007 -7.91336e-05 7.06113e-07)
(0.639843 -0.00079702 0.0344715)
(0.647064 -0.000823358 0.00225687)
(0.627992 -0.000400478 0.00137327)
(0.626484 -0.000249354 0.000129302)
(0.625111 -0.000126869 3.39163e-05)
(0.624999 -7.093e-05 2.29591e-06)
(0.624957 -3.69764e-05 2.01254e-07)
(0.640289 -0.0010521 0.039781)
(0.646082 -0.000905627 0.00347583)
(0.627886 -0.000388528 0.00182094)
(0.626437 -0.000233301 0.000192633)
(0.625093 -0.000112631 5.25381e-05)
(0.624992 -6.20563e-05 4.29946e-06)
(0.624954 -3.18242e-05 6.54435e-07)
(0.624973 -1.65634e-05 1.36142e-08)
(0.639733 -0.00127522 0.0444241)
(0.644706 -0.000958153 0.00501915)
(0.627752 -0.000363244 0.00231591)
(0.626382 -0.000211435 0.000273251)
(0.625076 -9.69189e-05 7.45964e-05)
(0.624986 -5.28512e-05 6.84033e-06)
(0.624951 -2.67107e-05 1.18447e-06)
(0.624972 -1.38441e-05 4.87712e-08)
(0.624984 -6.8194e-06 3.36245e-09)
(0.637847 -0.00144737 0.0481361)
(0.642876 -0.000971742 0.00683139)
(0.627576 -0.000325797 0.00285185)
(0.626317 -0.000184732 0.000374085)
(0.625061 -8.04347e-05 0.000100254)
(0.624981 -4.36072e-05 1.00305e-05)
(0.624949 -2.17631e-05 1.83891e-06)
(0.624971 -1.12469e-05 8.69039e-08)
(0.624984 -5.52311e-06 1.1585e-08)
(0.624993 -2.64604e-06 -5.54832e-10)
(0.634491 -0.00142784 0.0505858)
(0.640553 -0.000912264 0.00877703)
(0.627335 -0.000273514 0.00341392)
(0.626234 -0.000153825 0.00049631)
(0.625047 -6.37729e-05 0.000129515)
(0.624976 -3.45668e-05 1.40269e-05)
(0.624948 -1.7062e-05 2.59511e-06)
(0.624971 -8.80984e-06 1.47253e-07)
(0.624984 -4.30966e-06 1.96788e-08)
(0.624993 -2.06612e-06 -4.80773e-10)
(0.624998 -9.39805e-07 -7.28002e-11)
(0.629884 -0.00120597 0.0516538)
(0.63778 -0.000786327 0.0107034)
(0.627008 -0.00021031 0.00398356)
(0.626129 -0.000120439 0.000639229)
(0.625031 -4.74862e-05 0.000162295)
(0.624972 -2.59189e-05 1.89437e-05)
(0.624946 -1.267e-05 3.48164e-06)
(0.62497 -6.54451e-06 2.14552e-07)
(0.624983 -3.19467e-06 2.95494e-08)
(0.624993 -1.52889e-06 -8.34723e-11)
(0.624998 -6.98028e-07 2.49759e-09)
(0.625 -3.12204e-07 -5.57312e-10)
(0.624374 -0.00077137 0.0512307)
(0.634633 -0.000584428 0.0123953)
(0.626566 -0.000138462 0.00452415)
(0.625993 -8.55647e-05 0.000797362)
(0.625013 -3.20305e-05 0.000198097)
(0.624968 -1.77857e-05 2.48476e-05)
(0.624946 -8.61295e-06 4.48785e-06)
(0.62497 -4.4592e-06 3.10871e-07)
(0.624983 -2.16973e-06 4.30594e-08)
(0.624993 -1.04131e-06 5.942e-10)
(0.624998 -4.7344e-07 -7.40383e-10)
(0.625 -2.15279e-07 2.62136e-10)
(0.625002 -8.08168e-08 7.00331e-10)
(0.61849 -0.000308263 0.0494608)
(0.631267 -0.000368569 0.0136922)
(0.626001 -6.53051e-05 0.00499461)
(0.625823 -5.18121e-05 0.000961737)
(0.624991 -1.75439e-05 0.000235859)
(0.624964 -1.02957e-05 3.16991e-05)
(0.624945 -4.90688e-06 5.61379e-06)
(0.62497 -2.55692e-06 4.32541e-07)
(0.624983 -1.24355e-06 5.35336e-08)
(0.624993 -5.94251e-07 3.64213e-09)
(0.624998 -2.75099e-07 1.37161e-10)
(0.625 -1.21598e-07 -2.06448e-09)
(0.625002 -4.76977e-08 3.96217e-09)
(0.625002 -1.86509e-08 3.74494e-12)
(0.61265 -5.6619e-05 0.0463978)
(0.627838 -0.000125406 0.0144157)
(0.625311 -1.60432e-05 0.005338)
(0.625614 -1.76285e-05 0.00111732)
(0.624962 -5.30424e-06 0.000273607)
(0.624958 -3.36941e-06 3.92864e-05)
(0.624944 -1.56955e-06 6.8546e-06)
(0.624969 -8.28899e-07 5.8811e-07)
(0.624983 -3.99433e-07 7.07321e-08)
(0.624993 -1.93975e-07 7.70643e-09)
(0.624998 -8.76352e-08 -7.35353e-09)
(0.625 -4.10512e-08 3.69679e-09)
(0.625002 -1.60087e-08 3.391e-09)
(0.625002 -6.93149e-09 1.81267e-09)
(0.625003 -1.17819e-08 2.05917e-09)
(-1.18549e-06 -1.44492e-05 1.35507e-06)
(0.634687 0.000102745 0.00208087)
(0.635007 5.96859e-05 0.00652639)
(0.648671 -0.000328793 3.54655e-05)
(0.635653 -9.58312e-06 0.0114767)
(0.6486 -0.00039467 0.000148607)
(0.628323 -0.000315866 0.000109616)
(0.636594 -0.0001146 0.016988)
(0.648462 -0.000469339 0.000382363)
(0.628278 -0.000346377 0.000350957)
(0.626632 -0.000252643 1.27614e-05)
(0.637759 -0.000261546 0.0228357)
(0.648214 -0.000552828 0.000768841)
(0.628224 -0.000372199 0.000636982)
(0.626598 -0.000260615 4.20938e-05)
(0.625172 -0.000154544 5.75147e-06)
(0.639009 -0.000447683 0.0287441)
(0.647799 -0.000643679 0.00137637)
(0.628158 -0.000391176 0.000977546)
(0.62656 -0.000262987 8.05032e-05)
(0.625151 -0.000148361 1.85176e-05)
(0.625017 -8.63149e-05 7.12243e-07)
(0.640093 -0.0006634 0.0344679)
(0.647148 -0.000738891 0.00227373)
(0.628078 -0.000401468 0.00137333)
(0.626517 -0.000259284 0.000130152)
(0.62513 -0.000138985 3.39221e-05)
(0.625007 -7.91311e-05 2.31381e-06)
(0.624962 -4.20134e-05 2.04275e-07)
(0.640627 -0.000888925 0.0397867)
(0.646184 -0.000829912 0.00350383)
(0.627977 -0.000401022 0.00182179)
(0.626468 -0.000249248 0.000193982)
(0.62511 -0.000126868 5.25451e-05)
(0.624998 -7.09261e-05 4.33801e-06)
(0.624957 -3.69726e-05 6.4704e-07)
(0.624975 -1.93624e-05 1.48684e-08)
(0.64017 -0.00111352 0.0444719)
(0.644829 -0.000907419 0.00506593)
(0.627847 -0.000388949 0.00231894)
(0.62641 -0.000233079 0.000275202)
(0.625091 -0.000112627 7.46512e-05)
(0.624991 -6.205e-05 6.88262e-06)
(0.624954 -3.18201e-05 1.19308e-06)
(0.624973 -1.656e-05 4.58653e-08)
(0.624985 -8.19869e-06 3.62185e-09)
(0.638347 -0.00129212 0.0482391)
(0.64301 -0.000950277 0.00689482)
(0.627669 -0.000363078 0.00285688)
(0.62634 -0.000211033 0.000376451)
(0.625074 -9.69084e-05 0.000100336)
(0.624985 -5.28421e-05 1.00885e-05)
(0.624951 -2.6708e-05 1.83243e-06)
(0.624972 -1.38406e-05 9.3361e-08)
(0.624984 -6.81925e-06 1.06701e-08)
(0.624993 -3.27509e-06 -2.20689e-10)
(0.635023 -0.00139347 0.0508051)
(0.640695 -0.000947214 0.00886856)
(0.627422 -0.000324095 0.00342327)
(0.626253 -0.000184059 0.000499166)
(0.625056 -8.04091e-05 0.000129667)
(0.62498 -4.35955e-05 1.40792e-05)
(0.624949 -2.17614e-05 2.60341e-06)
(0.624971 -1.12445e-05 1.44556e-07)
(0.624984 -5.52274e-06 1.92574e-08)
(0.624993 -2.64552e-06 -9.48478e-10)
(0.624998 -1.21076e-06 7.87326e-10)
(0.630334 -0.00130419 0.051893)
(0.637896 -0.000869974 0.0107968)
(0.627079 -0.000269893 0.0039932)
(0.626142 -0.000152878 0.000641859)
(0.625038 -6.37236e-05 0.000162476)
(0.624975 -3.45535e-05 1.8987e-05)
(0.624948 -1.70608e-05 3.48539e-06)
(0.624971 -8.80835e-06 2.21189e-07)
(0.624984 -4.30942e-06 3.01669e-08)
(0.624993 -2.06543e-06 3.51729e-11)
(0.624998 -9.41004e-07 -4.43418e-10)
(0.625 -4.23324e-07 4.66492e-10)
(0.62472 -0.00103601 0.0514683)
(0.634718 -0.000727331 0.012493)
(0.626621 -0.000204745 0.00453467)
(0.626002 -0.000119216 0.00079997)
(0.625018 -4.74075e-05 0.0001983)
(0.62497 -2.59063e-05 2.48772e-05)
(0.624946 -1.26681e-05 4.49442e-06)
(0.62497 -6.54362e-06 3.12477e-07)
(0.624983 -3.1945e-06 3.98955e-08)
(0.624993 -1.52838e-06 2.10832e-09)
(0.624998 -6.99368e-07 2.06853e-09)
(0.625 -3.12691e-07 -9.82581e-10)
(0.625002 -1.1966e-07 1.27665e-09)
(0.618683 -0.000641759 0.049565)
(0.631302 -0.000527007 0.0137544)
(0.626035 -0.000133598 0.00499908)
(0.625828 -8.43152e-05 0.000963405)
(0.624994 -3.1937e-05 0.000236002)
(0.624965 -1.7778e-05 3.17052e-05)
(0.624945 -8.60942e-06 5.62593e-06)
(0.62497 -4.45853e-06 4.32985e-07)
(0.624983 -2.16984e-06 5.68631e-08)
(0.624993 -1.04074e-06 2.41081e-09)
(0.624998 -4.74872e-07 -1.71867e-09)
(0.625 -2.15546e-07 1.25457e-09)
(0.625002 -8.09953e-08 2.34858e-09)
(0.625002 -3.20335e-08 4.03653e-10)
(0.612762 -0.000261312 0.0464116)
(0.62784 -0.000325151 0.014457)
(0.625331 -6.41923e-05 0.00533688)
(0.625615 -5.07902e-05 0.00111839)
(0.624963 -1.75004e-05 0.000273587)
(0.624958 -1.02994e-05 3.92704e-05)
(0.624944 -4.90221e-06 6.86048e-06)
(0.624969 -2.55801e-06 5.83733e-07)
(0.624983 -1.24336e-06 6.86421e-08)
(0.624993 -5.94319e-07 7.41869e-09)
(0.624998 -2.75638e-07 -3.27452e-09)
(0.625 -1.21706e-07 -2.4898e-10)
(0.625002 -4.78879e-08 6.40933e-09)
(0.625002 -1.84714e-08 5.0454e-10)
(0.625003 -4.5627e-09 5.12229e-09)
(0.607327 -5.3145e-05 0.0422323)
(0.624514 -0.000109536 0.014516)
(0.624534 -1.6814e-05 0.005498)
(0.625368 -1.72046e-05 0.00124715)
(0.624924 -5.33293e-06 0.000308049)
(0.624951 -3.37404e-06 4.71521e-05)
(0.624943 -1.56851e-06 8.17401e-06)
(0.624969 -8.29786e-07 7.64574e-07)
(0.624983 -3.9999e-07 8.9456e-08)
(0.624993 -1.93785e-07 1.12636e-08)
(0.624998 -8.77309e-08 -9.50127e-09)
(0.625 -4.09646e-08 5.75962e-09)
(0.625002 -1.60323e-08 4.99596e-09)
(0.625002 -6.69473e-09 3.71518e-09)
(0.625003 -1.1661e-08 7.14226e-09)
(0.625003 7.43266e-09 -5.72107e-10)
(-4.29394e-06 -2.16122e-05 2.37119e-06)
(-1.17577e-06 -1.30954e-05 1.68411e-06)
(-9.37807e-07 -1.07493e-05 1.52027e-06)
(0.634693 0.000128599 0.00208069)
(0.63502 9.3072e-05 0.00652569)
(0.648677 -0.000271328 3.55696e-05)
(0.63568 3.37779e-05 0.0114751)
(0.648613 -0.000329316 0.000149095)
(0.628358 -0.00028266 0.000109552)
(0.636639 -5.80215e-05 0.0169851)
(0.648484 -0.000396208 0.000383612)
(0.628323 -0.000315902 0.000350738)
(0.626662 -0.000239842 1.27925e-05)
(0.637833 -0.00018739 0.0228306)
(0.648248 -0.00047249 0.00077172)
(0.628279 -0.000346483 0.000636591)
(0.62663 -0.000252638 4.22368e-05)