/*--------------------------------*- C++ -*----------------------------------*\
  =========                 |
  \\      /  F ield         | OpenFOAM: The Open Source CFD Toolbox
   \\    /   O peration     | Website:  https://openfoam.org
    \\  /    A nd           | Version:  7
     \\/     M anipulation  |
\*---------------------------------------------------------------------------*/
FoamFile
{
    version     2.0;
    format      ascii;
    class       surfaceScalarField;
    location    "400";
    object      phi;
}
// * * * * * * * * * * * * * * * * * * * * * * * * * * * * * * * * * * * * * //

dimensions      [0 3 -1 0 0 0 0];

internalField   nonuniform List<scalar> 
127637
(
-3.64849e-14
6.46567e-12
3.16815e-11
-1.01012e-13
8.03182e-12
3.52385e-11
-6.67573e-14
1.38001e-11
4.01814e-11
-8.46936e-14
5.8289e-14
3.17079e-11
-1.15771e-13
9.06059e-12
3.90631e-11
-1.3639e-13
1.70891e-11
4.46932e-11
-1.44011e-13
1.07023e-13
3.51908e-11
-1.34082e-13
2.22352e-11
5.06963e-11
-1.08807e-13
3.06055e-13
4.00425e-11
-1.68762e-14
5.46388e-13
3.11784e-11
-1.37797e-13
1.0188e-11
4.32493e-11
-1.60289e-13
1.92972e-11
4.95451e-11
-1.89442e-13
1.20726e-13
3.89878e-11
-2.1168e-13
2.73538e-11
5.6385e-11
-1.82254e-13
4.34121e-13
4.44396e-11
-3.58284e-14
6.15797e-13
3.4594e-11
-2.63223e-13
3.1623e-11
6.36303e-11
-1.40705e-13
7.93667e-13
5.03494e-11
-2.12077e-14
1.19852e-12
3.94115e-11
-1.23111e-14
7.2713e-14
3.1118e-11
-1.23592e-13
1.12631e-11
4.77677e-11
-1.82057e-13
2.17029e-11
5.48534e-11
-2.21609e-13
1.61001e-13
4.31204e-11
-2.41234e-13
3.09053e-11
6.25071e-11
-2.40779e-13
4.90121e-13
4.92342e-11
-5.55301e-14
6.85926e-13
3.83216e-11
-3.51786e-13
3.84832e-11
7.07616e-11
-2.31762e-13
1.03402e-12
5.58762e-11
-4.52465e-14
1.35035e-12
4.3729e-11
-2.4555e-14
8.05468e-14
3.45257e-11
-4.5766e-13
4.17214e-11
7.92969e-11
-1.84057e-13
1.66763e-12
6.29404e-11
-2.64963e-14
1.98162e-12
4.95928e-11
-1.55941e-14
1.7009e-13
3.93298e-11
-4.8334e-15
4.09142e-14
3.10819e-11
-1.12842e-13
1.24353e-11
5.26405e-11
-1.6469e-13
2.40034e-11
6.0583e-11
-2.34867e-13
1.87409e-13
4.75936e-11
-2.57716e-13
3.47665e-11
6.92027e-11
-2.80442e-13
6.0123e-13
5.44528e-11
-7.36336e-14
7.63014e-13
4.23755e-11
-3.84748e-13
4.34844e-11
7.84454e-11
-3.05881e-13
1.16695e-12
6.19044e-11
-7.02274e-14
1.50422e-12
4.84409e-11
-3.68285e-14
8.92882e-14
3.82445e-11
-5.73881e-13
5.00254e-11
8.81685e-11
-2.96107e-13
2.0626e-12
6.98451e-11
-5.68806e-14
2.23122e-12
5.50257e-11
-3.10318e-14
1.88423e-13
4.36366e-11
-1.03846e-14
4.56549e-14
3.44856e-11
-6.82973e-13
5.21965e-11
9.79018e-11
-2.4186e-13
3.09596e-12
7.81104e-11
-3.27624e-14
2.90381e-12
6.2051e-11
-1.96639e-14
2.97687e-13
4.94848e-11
-6.09892e-15
9.06119e-14
3.92861e-11
-3.26019e-15
5.79677e-15
3.10794e-11
-9.30538e-14
1.36595e-11
5.78598e-11
-1.49017e-13
2.65067e-11
6.67614e-11
-2.36666e-13
2.27352e-13
5.24149e-11
-2.32858e-13
3.84695e-11
7.64302e-11
-2.97523e-13
6.85954e-13
6.01015e-11
-8.93266e-14
8.43734e-13
4.67655e-11
-3.85211e-13
4.89261e-11
8.68454e-11
-3.54435e-13
1.38683e-12
6.84656e-11
-9.30707e-14
1.67338e-12
5.35653e-11
-4.87755e-14
9.95547e-14
4.22879e-11
-6.12248e-13
5.64933e-11
9.77417e-11
-3.88955e-13
2.32558e-12
7.73796e-11
-8.84263e-14
2.48541e-12
6.09547e-11
-4.65661e-14
2.08888e-13
4.83368e-11
-1.65222e-14
5.07129e-14
3.82e-11
-8.63387e-13
6.15236e-11
1.08832e-10
-3.79046e-13
3.69616e-12
8.66722e-11
-7.10803e-14
3.2658e-12
6.88488e-11
-3.90457e-14
3.29828e-13
5.49036e-11
-1.31244e-14
1.01098e-13
4.35882e-11
-6.81147e-15
6.40458e-15
3.44827e-11
-8.69151e-13
6.26253e-11
1.19431e-10
-3.14124e-13
5.2301e-12
9.60818e-11
-3.98796e-14
3.96857e-12
7.70855e-11
-2.46832e-14
4.64748e-13
6.19086e-11
-7.65687e-15
1.51158e-13
4.94319e-11
-4.12095e-15
1.32961e-14
3.92828e-11
-1.8263e-15
1.97437e-15
3.10792e-11
-7.51118e-14
1.49674e-11
6.34195e-11
-1.23595e-13
2.91218e-11
7.33792e-11
-2.27232e-13
2.64594e-13
5.75857e-11
-2.08501e-13
4.24902e-11
8.42231e-11
-2.9945e-13
8.00529e-13
6.61901e-11
-1.02161e-13
9.31184e-13
5.14966e-11
-3.46471e-13
5.41674e-11
9.5914e-11
-3.75975e-13
1.56976e-12
7.55679e-11
-1.1297e-13
1.85079e-12
5.91144e-11
-5.99403e-14
1.10679e-13
4.6666e-11
-5.84646e-13
6.3559e-11
1.08203e-10
-4.47247e-13
2.71021e-12
8.55803e-11
-1.17142e-13
2.76489e-12
6.74028e-11
-6.1651e-14
2.32709e-13
5.34472e-11
-2.30824e-14
5.61675e-14
4.22383e-11
-9.22389e-13
6.93783e-11
1.20645e-10
-4.93827e-13
4.16158e-12
9.60205e-11
-1.10754e-13
3.63738e-12
7.62673e-11
-5.8599e-14
3.65691e-13
6.08175e-11
-2.08817e-14
1.12298e-13
4.8283e-11
-1.06613e-14
7.09791e-15
3.81967e-11
-1.16211e-12
7.25829e-11
1.32736e-10
-4.81733e-13
6.09258e-12
1.06603e-10
-8.8083e-14
4.45543e-12
8.55307e-11
-4.88559e-14
5.15111e-13
6.86877e-11
-1.65074e-14
1.68615e-13
5.4845e-11
-8.60894e-15
1.46959e-14
4.35844e-11
-3.85882e-15
2.20213e-15
3.44825e-11
-9.45608e-13
7.25082e-11
1.43564e-10
-3.95082e-13
8.15341e-12
1.16903e-10
-4.74445e-14
5.17487e-12
9.49229e-11
-3.08011e-14
6.81666e-13
7.68994e-11
-9.5431e-15
2.23782e-13
6.18455e-11
-5.18562e-15
2.28804e-14
4.94275e-11
-2.30871e-15
4.36706e-15
3.92827e-11
-1.11892e-15
1.67948e-16
3.10802e-11
-5.63467e-14
1.63442e-11
6.92987e-11
-1.00032e-13
3.19138e-11
8.04287e-11
-2.11644e-13
3.06248e-13
6.30976e-11
-1.74145e-13
4.66903e-11
9.25705e-11
-2.87575e-13
9.11794e-13
7.27201e-11
-1.11443e-13
1.02342e-12
5.65716e-11
-3.06633e-13
5.98428e-11
1.05691e-10
-3.7791e-13
1.80223e-12
8.32234e-11
-1.29167e-13
2.04293e-12
6.50946e-11
-6.9964e-14
1.2319e-13
5.13834e-11
-5.23766e-13
7.04134e-11
1.19499e-10
-4.73963e-13
3.05275e-12
9.44578e-11
-1.42248e-13
3.05853e-12
7.43853e-11
-7.57737e-14
2.58553e-13
5.89806e-11
-2.99242e-14
6.20497e-14
4.66108e-11
-8.61306e-13
7.80171e-11
1.33548e-10
-5.62505e-13
4.78609e-12
1.06195e-10
-1.46655e-13
4.04601e-12
8.4335e-11
-7.75593e-14
4.07118e-13
6.72474e-11
-2.91763e-14
1.24384e-13
5.33873e-11
-1.47857e-14
7.87056e-15
4.22346e-11
-1.27485e-12
8.16704e-11
1.47136e-10
-6.21909e-13
6.84781e-12
1.18099e-10
-1.3772e-13
4.96091e-12
9.47466e-11
-7.33142e-14
5.712e-13
7.60862e-11
-2.62701e-14
1.87282e-13
6.07523e-11
-1.34757e-14
1.62825e-14
4.82787e-11
-6.09816e-15
2.44954e-15
3.81965e-11
-1.3891e-12
8.28168e-11
1.59521e-10
-5.99218e-13
9.33981e-12
1.29693e-10
-1.07818e-13
5.79644e-12
1.05323e-10
-6.06989e-14
7.55931e-13
8.53198e-11
-2.06362e-14
2.49519e-13
6.86179e-11
-1.08316e-14
2.52953e-14
5.484e-11
-4.87785e-15
4.86574e-15
4.35842e-11
-2.34862e-15
1.80112e-16
3.44836e-11
-8.92094e-13
8.12452e-11
1.69556e-10
-4.73572e-13
1.18335e-11
1.40357e-10
-5.47495e-14
6.51486e-12
1.15618e-10
-3.8129e-14
9.58461e-13
9.46842e-11
-1.17834e-14
3.0949e-13
7.68255e-11
-6.48919e-15
3.5078e-14
6.18398e-11
-2.90461e-15
7.28377e-15
4.94275e-11
-1.41357e-15
3.96001e-16
3.92839e-11
-6.30651e-16
3.91706e-17
3.10808e-11
-3.93678e-14
1.77927e-11
7.54781e-11
-7.58241e-14
3.48523e-11
8.78835e-11
-1.91764e-13
3.47297e-13
6.89315e-11
-1.42078e-13
5.11714e-11
1.01462e-10
-2.67762e-13
1.03425e-12
7.96808e-11
-1.17184e-13
1.12166e-12
6.19817e-11
-2.58226e-13
6.5771e-11
1.16164e-10
-3.62922e-13
2.03339e-12
9.14339e-11
-1.40924e-13
2.24577e-12
7.15095e-11
-7.84424e-14
1.36705e-13
5.64434e-11
-4.59374e-13
7.78124e-11
1.31677e-10
-4.75477e-13
3.46818e-12
1.04027e-10
-1.62608e-13
3.37645e-12
8.19102e-11
-8.84394e-14
2.87516e-13
6.49429e-11
-3.68269e-14
6.83782e-14
5.13219e-11
-7.72124e-13
8.64888e-11
1.47486e-10
-5.94988e-13
5.3736e-12
1.17211e-10
-1.78175e-13
4.47639e-12
9.30714e-11
-9.5337e-14
4.5212e-13
7.42095e-11
-3.78264e-14
1.37428e-13
5.89139e-11
-1.91312e-14
8.72121e-15
4.66064e-11
-1.19186e-12
9.17394e-11
1.62856e-10
-7.01973e-13
7.80242e-12
1.30611e-10
-1.82328e-13
5.51701e-12
1.04769e-10
-9.69985e-14
6.35488e-13
8.41304e-11
-3.67105e-14
2.07449e-13
6.71747e-11
-1.86885e-14
1.80526e-14
5.33823e-11
-8.53958e-15
2.70972e-15
4.22343e-11
-1.59804e-12
9.29276e-11
1.76815e-10
-7.68748e-13
1.04777e-11
1.43676e-10
-1.69503e-13
6.4508e-12
1.16671e-10
-9.10423e-14
8.38397e-13
9.45098e-11
-3.28566e-14
2.77112e-13
7.60086e-11
-1.69554e-14
2.80239e-14
6.07466e-11
-7.70824e-15
5.41483e-15
4.82785e-11
-3.70075e-15
1.99696e-16
3.81976e-11
-1.48848e-12
9.17568e-11
1.88362e-10
-7.19424e-13
1.34052e-11
1.55702e-10
-1.29632e-13
7.27896e-12
1.28285e-10
-7.4735e-14
1.06352e-12
1.05052e-10
-2.55983e-14
3.44858e-13
8.52383e-11
-1.35509e-14
3.87982e-14
6.86114e-11
-6.1379e-15
8.11327e-15
5.484e-11
-2.9685e-15
4.2968e-16
4.35856e-11
-1.33476e-15
3.10865e-17
3.44842e-11
-7.49565e-13
8.81833e-11
1.96174e-10
-5.37527e-13
1.60898e-11
1.65837e-10
-6.10483e-14
7.967e-12
1.38966e-10
-4.66618e-14
1.30222e-12
1.15321e-10
-1.43854e-14
4.08952e-13
9.45991e-11
-8.0639e-15
5.04605e-14
7.68182e-11
-3.63215e-15
1.07767e-14
6.18399e-11
-1.77806e-15
6.91859e-16
4.9429e-11
-7.97719e-16
8.23533e-17
3.92846e-11
-3.59413e-16
6.56599e-18
3.10812e-11
-2.39154e-14
1.93014e-11
8.19161e-11
-5.38601e-14
3.79429e-11
9.57191e-11
-1.70295e-13
3.89139e-13
7.50674e-11
-1.09892e-13
5.58863e-11
1.10866e-10
-2.42622e-13
1.15735e-12
8.70483e-11
-1.19262e-13
1.22485e-12
6.77087e-11
-2.12978e-13
7.20895e-11
1.27321e-10
-3.37821e-13
2.28541e-12
1.00186e-10
-1.48169e-13
2.46176e-12
7.8348e-11
-8.51013e-14
1.51341e-13
6.1837e-11
-3.89922e-13
8.55402e-11
1.44722e-10
-4.5655e-13
3.8889e-12
1.1429e-10
-1.77428e-13
3.71235e-12
8.99821e-11
-9.91615e-14
3.18791e-13
7.13381e-11
-4.35457e-14
7.51419e-14
5.63749e-11
-6.7447e-13
9.56058e-11
1.62511e-10
-5.95473e-13
6.0612e-12
1.29084e-10
-2.03624e-13
4.94223e-12
1.02486e-10
-1.1127e-13
5.02379e-13
8.17113e-11
-4.65532e-14
1.51455e-13
6.48685e-11
-2.36239e-14
9.66231e-15
5.13168e-11
-1.07697e-12
1.01759e-10
1.79847e-10
-7.40882e-13
8.74046e-12
1.44158e-10
-2.21656e-13
6.10461e-12
1.15622e-10
-1.19248e-13
7.05403e-13
9.28404e-11
-4.75973e-14
2.29215e-13
7.41286e-11
-2.41817e-14
1.9992e-14
5.89081e-11
-1.11698e-14
3.00016e-15
4.6606e-11
-1.5266e-12
1.04198e-10
1.95682e-10
-8.62546e-13
1.18576e-11
1.58894e-10
-2.24571e-13
7.17117e-12
1.29012e-10
-1.204e-13
9.32155e-13
1.04502e-10
-4.59261e-14
3.06951e-13
8.40439e-11
-2.35141e-14
3.10615e-14
6.71683e-11
-1.07941e-14
5.98532e-15
5.33821e-11
-5.17695e-15
2.26771e-16
4.22355e-11
-1.82299e-12
1.02659e-10
2.08766e-10
-9.22318e-13
1.50101e-11
1.72486e-10
-2.05564e-13
8.09506e-12
1.42108e-10
-1.11992e-13
1.17978e-12
1.16367e-10
-4.07921e-14
3.82914e-13
9.44192e-11
-2.12126e-14
4.29778e-14
7.60013e-11
-9.69907e-15
9.02851e-15
6.07466e-11
-4.6777e-15
4.72103e-16
4.828e-11
-2.10885e-15
5.10596e-17
3.81984e-11
-1.45795e-12
9.88295e-11
2.17887e-10
-8.26637e-13
1.80967e-11
1.83959e-10
-1.52246e-13
8.88028e-12
1.54192e-10
-9.0936e-14
1.44573e-12
1.27947e-10
-3.14501e-14
4.5529e-13
1.04958e-10
-1.68321e-14
5.58408e-14
8.523e-11
-7.67921e-15
1.19963e-14
6.86116e-11
-3.73493e-15
7.52826e-16
5.48416e-11
-1.68754e-15
6.59545e-17
4.35864e-11
-7.48688e-16
1.8151e-17
3.44846e-11
-5.8216e-13
9.27162e-11
2.21702e-10
-5.78698e-13
2.05884e-11
1.92254e-10
-6.60857e-14
9.48521e-12
1.64385e-10
-5.61953e-14
1.7138e-12
1.38611e-10
-1.73323e-14
5.22268e-13
1.15225e-10
-9.93524e-15
6.95749e-14
9.459e-11
-4.50753e-15
1.48989e-14
7.68185e-11
-2.2241e-15
1.08269e-15
6.18417e-11
-1.00426e-15
1.3969e-16
4.94299e-11
-4.53512e-16
2.23565e-17
3.92851e-11
-1.80262e-16
-1.72313e-17
3.10813e-11
-1.05138e-14
2.08603e-11
8.85643e-11
-3.39474e-14
4.11614e-11
1.03883e-10
-1.48598e-13
4.30537e-13
8.14639e-11
-8.07391e-14
6.0844e-11
1.2075e-10
-2.15446e-13
1.28384e-12
9.47972e-11
-1.18007e-13
1.33314e-12
7.37331e-11
-1.68908e-13
7.87359e-11
1.39119e-10
-3.06127e-13
2.54163e-12
1.0945e-10
-1.50799e-13
2.68869e-12
8.5587e-11
-8.97009e-14
1.66827e-13
6.75465e-11
-3.25107e-13
9.37668e-11
1.58619e-10
-4.24816e-13
4.34419e-12
1.2523e-10
-1.86533e-13
4.07001e-12
9.8587e-11
-1.07578e-13
3.5263e-13
7.81551e-11
-4.98055e-14
8.2338e-14
6.17609e-11
-5.76591e-13
1.05129e-10
1.78607e-10
-5.71625e-13
6.76761e-12
1.4182e-10
-2.22208e-13
5.43493e-12
1.12586e-10
-1.24768e-13
5.56656e-13
8.97578e-11
-5.50481e-14
1.66463e-13
7.12553e-11
-2.81598e-14
1.06875e-14
5.63688e-11
-9.42638e-13
1.12515e-10
1.9816e-10
-7.39837e-13
9.8101e-12
1.58761e-10
-2.53262e-13
6.74046e-12
1.27318e-10
-1.39176e-13
7.83209e-13
1.02226e-10
-5.85804e-14
2.52632e-13
8.16211e-11
-2.9861e-14
2.21429e-14
6.48617e-11
-1.39624e-14
3.29889e-15
5.13162e-11
-1.40247e-12
1.15619e-10
2.16087e-10
-9.09213e-13
1.32604e-11
1.75373e-10
-2.73284e-13
7.9355e-12
1.42376e-10
-1.48041e-13
1.03424e-12
1.15321e-10
-5.95517e-14
3.39175e-13
9.2744e-11
-3.04264e-14
3.43881e-14
7.41211e-11
-1.41183e-14
6.63195e-15
5.89078e-11
-6.77403e-15
2.47879e-16
4.66074e-11
-1.80855e-12
1.1485e-10
2.31011e-10
-1.0343e-12
1.69e-11
1.90752e-10
-2.73061e-13
8.99406e-12
1.57139e-10
-1.48041e-13
1.31093e-12
1.2867e-10
-5.70398e-14
4.24125e-13
1.04401e-10
-2.9417e-14
4.76268e-14
8.40355e-11
-1.35821e-14
9.98212e-15
6.71681e-11
-6.54318e-15
5.37585e-16
5.33836e-11
-2.95819e-15
3.32009e-17
4.22363e-11
-1.91553e-12
1.10279e-10
2.41469e-10
-1.06518e-12
2.02278e-11
2.03786e-10
-2.444e-13
9.86796e-12
1.70805e-10
-1.36104e-13
1.60409e-12
1.41728e-10
-5.01841e-14
5.05377e-13
1.16263e-10
-2.63485e-14
6.18545e-14
9.44098e-11
-1.21344e-14
1.33481e-14
7.60014e-11
-5.88587e-15
8.27113e-16
6.07484e-11
-2.66508e-15
1.05656e-16
4.82809e-11
-1.17996e-15
3.93801e-18
3.81988e-11
-1.33746e-12
1.03419e-10
2.46196e-10
-9.06864e-13
2.30525e-11
2.1326e-10
-1.74147e-13
1.05522e-11
1.82395e-10
-1.08973e-13
1.90338e-12
1.53787e-10
-3.81872e-14
5.80882e-13
1.27842e-10
-2.0725e-14
7.704e-14
1.04948e-10
-9.53812e-15
1.65767e-14
8.52304e-11
-4.67236e-15
1.1847e-15
6.86136e-11
-2.1239e-15
1.16838e-16
5.48427e-11
-9.45531e-16
4.67087e-17
4.35869e-11
-3.87361e-16
-2.71464e-17
3.44848e-11
-4.39552e-13
9.4392e-11
2.441e-10
-5.93859e-13
2.48734e-11
2.18011e-10
-7.0442e-14
1.09885e-11
1.90821e-10
-6.62717e-14
2.18394e-12
1.63981e-10
-2.0586e-14
6.48385e-13
1.38505e-10
-1.2111e-14
9.28056e-14
1.15214e-10
-5.54242e-15
1.96749e-14
9.45907e-11
-2.76239e-15
1.58659e-15
7.68208e-11
-1.25686e-15
2.05801e-16
6.18429e-11
-5.69839e-16
3.77184e-17
4.94305e-11
-2.29568e-16
-4.02035e-17
3.92853e-11
-1.01374e-16
1.5475e-17
3.10814e-11
9.21094e-16
2.24544e-11
9.53601e-11
-1.66726e-14
4.44865e-11
1.12313e-10
-1.27822e-13
4.71686e-13
8.80718e-11
-5.44578e-14
6.6006e-11
1.31047e-10
-1.88005e-13
1.41085e-12
1.02875e-10
-1.13795e-13
1.44564e-12
8.0014e-11
-1.29157e-13
8.57221e-11
1.5152e-10
-2.71851e-13
2.80604e-12
1.19193e-10
-1.49202e-13
2.92679e-12
9.32019e-11
-9.21386e-14
1.83102e-13
7.35524e-11
-2.63822e-13
1.02417e-10
1.73315e-10
-3.85017e-13
4.81105e-12
1.3681e-10
-1.89843e-13
4.44583e-12
1.07696e-10
-1.13394e-13
3.88436e-13
8.53712e-11
-5.53219e-14
8.99405e-14
6.74621e-11
-4.85208e-13
1.15252e-10
1.95754e-10
-5.31709e-13
7.52758e-12
1.55395e-10
-2.33585e-13
5.95946e-12
1.23352e-10
-1.35361e-13
6.15317e-13
9.83349e-11
-6.29626e-14
1.82421e-13
7.80629e-11
-3.26086e-14
1.18105e-14
6.17536e-11
-8.11604e-13
1.23759e-10
2.17782e-10
-7.10134e-13
1.09212e-11
1.74424e-10
-2.7642e-13
7.41386e-12
1.39864e-10
-1.56078e-13
8.67219e-13
1.12292e-10
-6.92721e-14
2.77692e-13
8.96572e-11
-3.55955e-14
2.44735e-14
7.12472e-11
-1.68748e-14
3.63763e-15
5.63681e-11
-1.23793e-12
1.27864e-10
2.3808e-10
-9.06891e-13
1.48313e-11
1.93137e-10
-3.12265e-13
8.76243e-12
1.56778e-10
-1.72787e-13
1.1474e-12
1.26978e-10
-7.32976e-14
3.73847e-13
1.02118e-10
-3.75728e-14
3.80691e-14
8.16123e-11
-1.7648e-14
7.28596e-15
6.48612e-11
-8.48312e-15
2.84889e-16
5.13177e-11
-1.70389e-12
1.27446e-10
2.55084e-10
-1.09149e-12
1.88721e-11
2.10533e-10
-3.32885e-13
9.95262e-12
1.73416e-10
-1.82063e-13
1.45389e-12
1.41991e-10
-7.39742e-14
4.68652e-13
1.15208e-10
-3.80659e-14
5.27065e-14
9.27344e-11
-1.77643e-14
1.10582e-14
7.41208e-11
-8.56151e-15
5.81512e-16
5.89095e-11
-3.88011e-15
6.43264e-17
4.66082e-11
-1.9961e-12
1.23082e-10
2.67164e-10
-1.20123e-12
2.26853e-11
2.25362e-10
-3.26387e-13
1.09563e-11
1.88871e-10
-1.79864e-13
1.78144e-12
1.56712e-10
-7.02106e-14
5.59698e-13
1.28554e-10
-3.65376e-14
6.85246e-14
1.0439e-10
-1.69934e-14
1.47557e-14
8.40356e-11
-8.23252e-15
9.38669e-16
6.71701e-11
-3.73936e-15
6.93508e-17
5.33846e-11
-1.65202e-15
2.85699e-17
4.22368e-11
-1.88429e-12
1.15155e-10
2.72819e-10
-1.17951e-12
2.57273e-11
2.36242e-10
-2.83679e-13
1.17164e-11
2.02047e-10
-1.62908e-13
2.11215e-12
1.70351e-10
-6.10446e-14
6.44529e-13
1.41612e-10
-3.24392e-14
8.53378e-14
1.16251e-10
-1.50723e-14
1.84372e-14
9.44102e-11
-7.3642e-15
1.29823e-15
7.60036e-11
-3.35291e-15
1.77889e-16
6.07495e-11
-1.49147e-15
2.04446e-17
4.82814e-11
-6.1452e-16
-1.60266e-17
3.8199e-11
-1.17828e-12
1.05009e-10
2.71027e-10
-9.50998e-13
2.77728e-11
2.41833e-10
-1.94189e-13
1.22081e-11
2.11728e-10
-1.2811e-13
2.42596e-12
1.81935e-10
-4.57247e-14
7.20486e-13
1.53672e-10
-2.52421e-14
1.02823e-13
1.2783e-10
-1.17416e-14
2.18762e-14
1.04949e-10
-5.80338e-15
1.74098e-15
8.52329e-11
-2.65794e-15
1.83184e-16
6.86149e-11
-1.18884e-15
7.42424e-17
5.48433e-11
-4.9123e-16
-6.43315e-17
4.35872e-11
-2.04376e-16
2.66457e-17
3.4485e-11
-3.40952e-13
9.30205e-11
2.61239e-10
-5.84005e-13
2.84426e-11
2.41115e-10
-7.51789e-14
1.23582e-11
2.16717e-10
-7.62096e-14
2.6896e-12
1.90392e-10
-2.40868e-14
7.84222e-13
1.63869e-10
-1.45716e-14
1.20202e-13
1.38492e-10
-6.7393e-15
2.51145e-14
1.15215e-10
-3.40129e-15
2.23254e-15
9.45935e-11
-1.56153e-15
2.9032e-16
7.68223e-11
-7.11967e-16
6.17312e-17
6.18436e-11
-2.90425e-16
-6.2903e-17
4.94308e-11
-1.27307e-16
4.25932e-17
3.92854e-11
-4.18027e-17
7.74355e-18
3.10815e-11
1.04379e-14
2.40656e-11
1.02226e-10
-1.94197e-15
4.78864e-11
1.20931e-10
-1.08545e-13
5.12351e-13
9.48285e-11
-3.16752e-14
7.13384e-11
1.41682e-10
-1.61727e-13
1.53852e-12
1.1122e-10
-1.07203e-13
1.56168e-12
8.65035e-11
-9.36029e-14
9.2995e-11
1.64442e-10
-2.37267e-13
3.07371e-12
1.2935e-10
-1.43871e-13
3.17416e-12
1.01141e-10
-9.2402e-14
1.99931e-13
7.98144e-11
-2.08837e-13
1.11506e-10
1.88763e-10
-3.41964e-13
5.29443e-12
1.48989e-10
-1.87823e-13
4.84011e-12
1.17278e-10
-1.16475e-13
4.26074e-13
9.2962e-11
-5.98308e-14
9.79043e-14
7.3459e-11
-4.00708e-13
1.25893e-10
2.13888e-10
-4.82035e-13
8.31212e-12
1.69764e-10
-2.37727e-13
6.51079e-12
1.34749e-10
-1.42685e-13
6.77401e-13
1.07414e-10
-6.99373e-14
1.99296e-13
8.52688e-11
-3.68167e-14
1.30036e-14
6.74533e-11
-6.88256e-13
1.35693e-10
2.38685e-10
-6.60488e-13
1.21113e-11
1.9112e-10
-2.90541e-13
8.13069e-12
1.53238e-10
-1.69338e-13
9.57922e-13
1.23023e-10
-7.92331e-14
3.04347e-13
9.82229e-11
-4.12197e-14
2.70326e-14
7.80533e-11
-1.98469e-14
3.97564e-15
6.17525e-11
-1.07489e-12
1.40686e-10
2.61648e-10
-8.70936e-13
1.64772e-11
2.1219e-10
-3.40915e-13
9.63964e-12
1.72227e-10
-1.93806e-13
1.26958e-12
1.39482e-10
-8.6679e-14
4.10975e-13
1.12172e-10
-4.47895e-14
4.20583e-14
8.96468e-11
-2.13287e-14
8.04298e-15
7.12465e-11
-1.02878e-14
3.06462e-16
5.63696e-11
-1.52688e-12
1.40954e-10
2.81031e-10
-1.08973e-12
2.10542e-11
2.31855e-10
-3.80608e-13
1.09897e-11
1.90957e-10
-2.12527e-13
1.61171e-12
1.56344e-10
-9.10575e-14
5.16586e-13
1.26853e-10
-4.70072e-14
5.83244e-14
1.02107e-10
-2.22058e-14
1.2154e-14
8.16118e-11
-1.0721e-14
6.708e-16
6.4863e-11
-4.87543e-15
3.59845e-17
5.13186e-11
-1.94264e-12
1.36549e-10
2.94983e-10
-1.27331e-12
2.5299e-11
2.48729e-10
-3.9911e-13
1.21229e-11
2.08435e-10
-2.21262e-13
1.97495e-12
1.72937e-10
-9.10762e-14
6.18431e-13
1.41862e-10
-4.7282e-14
7.58093e-14
1.15196e-10
-2.2225e-14
1.63463e-14
9.27343e-11
-1.07719e-14
1.01884e-15
7.4123e-11
-4.90369e-15
1.35055e-16
5.89105e-11
-2.16826e-15
3.2093e-18
4.66088e-11
-2.07397e-12
1.28245e-10
3.01813e-10
-1.34464e-12
2.87658e-11
2.61248e-10
-3.81917e-13
1.29989e-11
2.23418e-10
-2.15301e-13
2.34455e-12
1.88361e-10
-8.54655e-14
7.1367e-13
1.56583e-10
-4.4981e-14
9.45144e-14
1.2854e-10
-2.11099e-14
2.03868e-14
1.0439e-10
-1.0299e-14
1.46968e-15
8.4038e-11
-4.70545e-15
1.26263e-16
6.71713e-11
-2.08718e-15
7.19422e-17
5.33853e-11
-8.66096e-16
-4.07892e-17
4.22371e-11
-1.76509e-12
1.16741e-10
3.00312e-10
-1.25153e-12
3.09542e-11
2.67892e-10
-3.2077e-13
1.35456e-11
2.34539e-10
-1.91382e-13
2.69217e-12
2.01531e-10
-7.32471e-14
7.99078e-13
1.70224e-10
-3.95018e-14
1.13905e-13
1.41598e-10
-1.85567e-14
2.43161e-14
1.16252e-10
-9.14812e-15
1.90977e-15
9.4413e-11
-4.19432e-15
2.59669e-16
7.60051e-11
-1.87667e-15
3.61482e-17
6.07502e-11
-7.77866e-16
-4.16304e-17
4.82817e-11
-3.20813e-16
1.53213e-17
3.81992e-11
-1.01832e-12
1.0334e-10
2.90019e-10
-9.55808e-13
3.17029e-11
2.67469e-10
-2.11773e-13
1.37185e-11
2.40459e-10
-1.47197e-13
2.98773e-12
2.11237e-10
-5.38731e-14
8.7076e-13
1.81814e-10
-3.03391e-14
1.33243e-13
1.53658e-10
-1.42951e-14
2.79073e-14
1.27831e-10
-7.14519e-15
2.45701e-15
1.04952e-10
-3.30248e-15
2.74754e-16
8.52345e-11
-1.48622e-15
1.0492e-16
6.86157e-11
-6.19981e-16
-9.97976e-17
5.48436e-11
-2.58369e-16
6.90358e-17
4.35873e-11
-8.84871e-17
1.12873e-17
3.4485e-11
-2.81712e-13
8.87415e-11
2.71398e-10
-5.53022e-13
3.08544e-11
2.5938e-10
-8.10305e-14
1.345e-11
2.40105e-10
-8.52102e-14
3.19232e-12
2.16299e-10
-2.77477e-14
9.23657e-13
1.9028e-10
-1.72562e-14
1.51246e-13
1.63856e-10
-8.08655e-15
3.11655e-14
1.38494e-10
-4.14298e-15
3.0334e-15
1.15218e-10
-1.92302e-15
3.88705e-16
9.45953e-11
-8.83245e-16
8.55069e-17
7.68232e-11
-3.64876e-16
-9.17204e-17
6.1844e-11
-1.59495e-16
6.79496e-17
4.9431e-11
-5.35201e-17
2.10199e-17
3.92855e-11
-2.23779e-17
1.96283e-17
3.10815e-11
1.8214e-14
2.56728e-11
1.09071e-10
1.03258e-14
5.13228e-11
1.29637e-10
-9.11096e-14
5.52422e-13
1.01656e-10
-1.22588e-14
7.67905e-11
1.52552e-10
-1.37349e-13
1.66596e-12
1.19753e-10
-9.8844e-14
1.6802e-12
9.31399e-11
-6.28275e-14
1.00507e-10
1.77785e-10
-2.04149e-13
3.34435e-12
1.39843e-10
-1.3553e-13
3.42924e-12
1.09344e-10
-9.06062e-14
2.17174e-13
8.62846e-11
-1.60068e-13
1.20965e-10
2.04859e-10
-2.98567e-13
5.78669e-12
1.61685e-10
-1.81105e-13
5.2497e-12
1.27268e-10
-1.16807e-13
4.6501e-13
1.00876e-10
-6.31048e-14
1.06201e-13
7.97114e-11
-3.25211e-13
1.37066e-10
2.32951e-10
-4.28284e-13
9.12636e-12
1.84878e-10
-2.35181e-13
7.08911e-12
1.46737e-10
-1.46563e-13
7.42661e-13
1.16965e-10
-7.56379e-14
2.1696e-13
9.28486e-11
-4.06133e-14
1.42922e-14
7.34485e-11
-5.75473e-13
1.48232e-10
2.60794e-10
-5.9912e-13
1.33461e-11
2.08793e-10
-2.95691e-13
8.8844e-12
1.67396e-10
-1.78513e-13
1.05392e-12
1.34381e-10
-8.80114e-14
3.32532e-13
1.0729e-10
-4.65401e-14
2.97392e-14
8.52574e-11
-2.27984e-14
4.36191e-15
6.74518e-11
-9.18134e-13
1.54277e-10
2.86756e-10
-8.10488e-13
1.82344e-11
2.32502e-10
-3.58324e-13
1.05734e-11
1.88695e-10
-2.10295e-13
1.40132e-12
1.52811e-10
-9.9146e-14
4.50467e-13
1.22889e-10
-5.18674e-14
4.64268e-14
9.82106e-11
-2.50858e-14
8.78223e-15
7.80522e-11
-1.21609e-14
3.58381e-16
6.17541e-11
-1.34054e-12
1.55137e-10
3.08841e-10
-1.04837e-12
2.33559e-11
2.54728e-10
-4.1577e-13
1.20919e-11
2.09773e-10
-2.38447e-13
1.7821e-12
1.7174e-10
-1.07687e-13
5.67936e-13
1.39342e-10
-5.60384e-14
6.44002e-14
1.12159e-10
-2.68364e-14
1.34107e-14
8.96461e-11
-1.3002e-14
7.15604e-16
7.12484e-11
-5.9352e-15
8.13602e-17
5.63705e-11
-1.77874e-12
1.51013e-10
3.24968e-10
-1.27605e-12
2.81696e-11
2.73918e-10
-4.57062e-13
1.33852e-11
2.29518e-10
-2.58369e-13
2.18776e-12
1.90418e-10
-1.12124e-13
6.81698e-13
1.562e-10
-5.83892e-14
8.38428e-14
1.26838e-10
-2.77828e-14
1.79654e-14
1.02106e-10
-1.34882e-14
1.1683e-15
8.16141e-11
-6.16311e-15
7.45436e-17
6.48642e-11
-2.72536e-15
3.92584e-17
5.13192e-11
-2.09457e-12
1.42214e-10
3.33214e-10
-1.43664e-12
3.20401e-11
2.88334e-10
-4.69144e-13
1.43807e-11
2.46559e-10
-2.64986e-13
2.59829e-12
2.07862e-10
-1.10901e-13
7.88485e-13
1.72792e-10
-5.82109e-14
1.04529e-13
1.41846e-10
-2.76077e-14
2.25753e-14
1.15196e-10
-1.34764e-14
1.59297e-15
9.27369e-11
-6.16948e-15
2.26372e-16
7.41243e-11
-2.74075e-15
2.02497e-17
5.89112e-11
-1.14055e-15
-1.79155e-17
4.6609e-11
-2.05042e-12
1.29782e-10
3.32193e-10
-1.44729e-12
3.45306e-11
2.96244e-10
-4.3607e-13
1.50175e-11
2.59345e-10
-2.53085e-13
2.9871e-12
2.22837e-10
-1.02636e-13
8.84573e-13
1.88219e-10
-5.47706e-14
1.26118e-13
1.56566e-10
-2.59934e-14
2.68891e-14
1.28541e-10
-1.27924e-14
2.15093e-15
1.04393e-10
-5.88771e-15
2.02338e-16
8.40396e-11
-2.62526e-15
1.13067e-16
6.71721e-11
-1.09662e-15
-9.73864e-17
5.33856e-11
-4.48813e-16
4.2758e-17
4.22372e-11
-1.59838e-12
1.14762e-10
3.21336e-10
-1.27414e-12
3.52959e-11
2.96288e-10
-3.53242e-13
1.52133e-11
2.66366e-10
-2.19908e-13
3.31545e-12
2.33989e-10
-8.6474e-14
9.65331e-13
2.01397e-10
-4.74646e-14
1.47614e-13
1.70207e-10
-2.25985e-14
3.09946e-14
1.41599e-10
-1.12645e-14
2.69898e-15
1.16256e-10
-5.20959e-15
3.63866e-16
9.44147e-11
-2.34799e-15
6.30673e-17
7.6006e-11
-9.79936e-16
-6.53094e-17
6.07506e-11
-4.06571e-16
4.60225e-17
4.82819e-11
-1.40001e-16
1.2303e-17
3.81992e-11
-8.75842e-13
9.85189e-11
3.0127e-10
-9.23703e-13
3.43532e-11
2.8774e-10
-2.26469e-13
1.49238e-11
2.66409e-10
-1.6477e-13
3.5459e-12
2.39981e-10
-6.23227e-14
1.02502e-12
2.11117e-10
-3.58889e-14
1.67716e-13
1.81798e-10
-1.71733e-14
3.46113e-14
1.5366e-10
-8.70271e-15
3.34449e-15
1.27835e-10
-4.06695e-15
3.87302e-16
1.04954e-10
-1.84476e-15
1.31094e-16
8.52355e-11
-7.78093e-16
-1.40671e-16
6.86161e-11
-3.2497e-16
1.08343e-16
5.48438e-11
-1.12095e-16
2.62274e-17
4.35874e-11
-4.16025e-17
2.59185e-17
3.44851e-11
-2.47259e-13
8.20153e-11
2.73445e-10
-5.06901e-13
3.18351e-11
2.70924e-10
-8.77673e-14
1.41216e-11
2.58796e-10
-9.2501e-14
3.64083e-12
2.39748e-10
-3.14342e-14
1.05693e-12
2.16197e-10
-2.00534e-14
1.84618e-13
1.90267e-10
-9.55226e-15
3.76901e-14
1.63859e-10
-4.98079e-15
3.99771e-15
1.38498e-10
-2.34284e-15
5.08278e-16
1.1522e-10
-1.08601e-15
1.17066e-16
9.45964e-11
-4.54736e-16
-1.18325e-16
7.68236e-11
-1.98928e-16
1.02584e-16
6.18442e-11
-6.78534e-17
3.51919e-17
4.94311e-11
-2.77191e-17
5.17803e-17
3.92855e-11
-1.26519e-17
5.91155e-17
3.10816e-11
-1.30616e-15
-4.74584e-15
7.29831e-15
2.44373e-14
2.72518e-11
1.15794e-10
2.03591e-14
5.47504e-11
1.38318e-10
-7.56281e-14
5.91688e-13
1.08464e-10
3.93353e-15
8.23008e-11
1.63535e-10
-1.153e-13
1.79252e-12
1.28375e-10
-8.93534e-14
1.79989e-12
9.98466e-11
-3.66166e-14
1.08187e-10
1.91425e-10
-1.73429e-13
3.61596e-12
1.50572e-10
-1.24956e-13
3.68974e-12
1.17733e-10
-8.69645e-14
2.34625e-13
9.29016e-11
-1.17927e-13
1.30734e-10
2.21482e-10
-2.57007e-13
6.28659e-12
1.74801e-10
-1.70599e-13
5.67202e-12
1.3759e-10
-1.14535e-13
5.04933e-13
1.09054e-10
-6.49842e-14
1.14704e-13
8.61717e-11
-2.587e-13
1.48692e-10
2.52814e-10
-3.74159e-13
9.95938e-12
2.00633e-10
-2.26759e-13
7.68984e-12
1.59237e-10
-1.46983e-13
8.10208e-13
1.26923e-10
-7.97762e-14
2.35375e-13
1.00751e-10
-4.38248e-14
1.56122e-14
7.9699e-11
-4.74787e-13
1.61389e-10
2.84035e-10
-5.32656e-13
1.46299e-11
2.27381e-10
-2.92504e-13
9.67491e-12
1.82289e-10
-1.83373e-13
1.15485e-12
1.4633e-10
-9.5186e-14
3.6205e-13
1.16827e-10
-5.13396e-14
3.26679e-14
9.28351e-11
-2.56327e-14
4.74207e-15
7.34466e-11
-7.74581e-13
1.68549e-10
3.13313e-10
-7.35948e-13
2.00645e-11
2.54001e-10
-3.64691e-13
1.15555e-11
2.06128e-10
-2.21719e-13
1.54078e-12
1.6692e-10
-1.10132e-13
4.92243e-13
1.34233e-10
-5.85635e-14
5.10541e-14
1.07275e-10
-2.88166e-14
9.65067e-15
8.52558e-11
-1.40665e-14
3.78596e-16
6.74534e-11
-1.15431e-12
1.70156e-10
3.3847e-10
-9.77178e-13
2.58081e-11
2.79111e-10
-4.37094e-13
1.32651e-11
2.29832e-10
-2.58791e-13
1.96556e-12
1.88151e-10
-1.23181e-13
6.22583e-13
1.52655e-10
-6.48953e-14
7.10472e-14
1.22873e-10
-3.15643e-14
1.46512e-14
9.82094e-11
-1.53691e-14
8.40084e-16
7.80541e-11
-7.05246e-15
3.93273e-17
6.17551e-11
-1.58467e-12
1.66256e-10
3.57114e-10
-1.232e-12
3.1214e-11
3.00939e-10
-4.99848e-13
1.47297e-11
2.52133e-10
-2.90005e-13
2.4175e-12
2.0917e-10
-1.32613e-13
7.49513e-13
1.71579e-10
-6.96107e-14
9.25307e-14
1.39325e-10
-3.35753e-14
1.98244e-14
1.12158e-10
-1.63584e-14
1.25256e-15
8.96484e-11
-7.50146e-15
1.73246e-16
7.12496e-11
-3.32439e-15
1.54824e-18
5.63711e-11
-1.96991e-12
1.5725e-10
3.67062e-10
-1.44962e-12
3.56208e-11
3.1753e-10
-5.38798e-13
1.58762e-11
2.71497e-10
-3.09611e-13
2.87643e-12
2.28874e-10
-1.36555e-13
8.6914e-13
1.90257e-10
-7.1887e-14
1.15544e-13
1.56182e-10
-3.45131e-14
2.48234e-14
1.26838e-10
-1.68733e-14
1.81957e-15
1.02109e-10
-7.75554e-15
1.37989e-16
8.16155e-11
-3.44374e-15
9.81654e-17
6.48649e-11
-1.44105e-15
-5.93791e-17
5.13195e-11
-2.15134e-12
1.43841e-10
3.66727e-10
-1.56312e-12
3.84164e-11
3.26953e-10
-5.38773e-13
1.66102e-11
2.86207e-10
-3.11749e-13
3.30927e-12
2.45907e-10
-1.33236e-13
9.77169e-13
2.07703e-10
-7.08817e-14
1.39446e-13
1.72773e-10
-3.39936e-14
2.97613e-14
1.41847e-10
-1.67399e-14
2.34046e-15
1.15199e-10
-7.71793e-15
3.3034e-16
9.27386e-11
-3.44871e-15
3.67458e-17
7.41251e-11
-1.44254e-15
-4.74727e-17
5.89116e-11
-5.91473e-16
1.83929e-17
4.66092e-11
-1.94734e-12
1.27413e-10
3.55418e-10
-1.49716e-12
3.93061e-11
3.2764e-10
-4.84783e-13
1.6856e-11
2.94537e-10
-2.91167e-13
3.67721e-12
2.58726e-10
-1.21277e-13
1.06831e-12
2.22688e-10
-6.58063e-14
1.63404e-13
1.882e-10
-3.16588e-14
3.42814e-14
1.56568e-10
-1.57502e-14
3.02529e-15
1.28545e-10
-7.31451e-15
3.12981e-16
1.04395e-10
-3.28324e-15
1.57653e-16
8.40405e-11
-1.38201e-15
-1.48701e-16
6.71725e-11
-5.67556e-16
1.0517e-16
5.33858e-11
-1.97556e-16
1.19409e-17
4.22373e-11
-1.41586e-12
1.09332e-10
3.33784e-10
-1.24761e-12
3.82131e-11
3.18743e-10
-3.79005e-13
1.65437e-11
2.9511e-10
-2.4637e-13
3.93442e-12
2.65829e-10
-1.00181e-13
1.13592e-12
2.33856e-10
-5.61267e-14
1.85816e-13
2.01379e-10
-2.71584e-14
3.84078e-14
1.7021e-10
-1.37199e-14
3.68262e-15
1.41603e-10
-6.41444e-15
4.83258e-16
1.16258e-10
-2.91662e-15
9.02137e-17
9.44158e-11
-1.22725e-15
-9.97881e-17
7.60064e-11
-5.12749e-16
7.48032e-17
6.07508e-11
-1.77311e-16
3.16301e-17
4.8282e-11
-6.28506e-17
2.41477e-17
3.81993e-11
-7.53962e-13
9.10229e-11
3.0352e-10
-8.62261e-13
3.54194e-11
3.00559e-10
-2.37494e-13
1.56659e-11
2.87148e-10
-1.79272e-13
4.04363e-12
2.65998e-10
-7.06341e-14
1.17251e-12
2.39872e-10
-4.16609e-14
2.0477e-13
2.11102e-10
-2.0306e-14
4.18341e-14
1.81802e-10
-1.04615e-14
4.41423e-15
1.53664e-10
-4.95351e-15
5.27653e-16
1.27837e-10
-2.27016e-15
1.60951e-16
1.04955e-10
-9.69429e-16
-1.73181e-16
8.5236e-11
-4.06127e-16
1.54804e-16
6.86163e-11
-1.41436e-16