/*--------------------------------*- C++ -*----------------------------------*\
  =========                 |
  \\      /  F ield         | OpenFOAM: The Open Source CFD Toolbox
   \\    /   O peration     | Website:  https://openfoam.org
    \\  /    A nd           | Version:  7
     \\/     M anipulation  |
\*---------------------------------------------------------------------------*/
FoamFile
{
    version     2.0;
    format      ascii;
    class       volVectorField;
    location    "400";
    object      U;
}
// * * * * * * * * * * * * * * * * * * * * * * * * * * * * * * * * * * * * * //

dimensions      [0 1 -1 0 0 0 0];

internalField   nonuniform List<vector> 
43941
(
(0.62591 0.000252501 0.00178812)
(0.628524 -0.000593412 0.00200344)
(0.626321 0.000202081 0.00560873)
(0.646953 -0.000189717 9.05085e-06)
(0.629244 -0.000372332 0.00204018)
(0.628865 -0.000638468 0.00627529)
(0.647284 -0.000495429 1.77977e-05)
(0.627172 6.55569e-05 0.00988333)
(0.646905 -0.000191878 6.38339e-05)
(0.627368 -2.78195e-05 0.000106455)
(0.630604 -0.000725095 0.00207455)
(0.629587 -0.000421 0.00639347)
(0.64745 -0.000661659 1.81132e-05)
(0.629562 -0.000766401 0.0110081)
(0.647228 -0.000498143 9.22405e-05)
(0.627414 -8.88333e-05 0.000108156)
(0.628483 -0.000153244 0.0147294)
(0.646808 -0.000198309 0.000228169)
(0.627369 -2.76996e-05 0.000340359)
(0.626365 -1.82934e-05 1.17862e-05)
(0.631506 -0.000576847 0.00207822)
(0.630941 -0.000762272 0.00650214)
(0.647694 -0.000851867 2.27839e-05)
(0.630286 -0.000546386 0.0112256)
(0.647393 -0.000664142 9.39741e-05)
(0.627459 -0.000154997 0.00010876)
(0.630616 -0.000976852 0.0162628)
(0.647116 -0.000506034 0.000280048)
(0.627415 -8.86624e-05 0.000345756)
(0.626368 -5.32081e-05 1.17682e-05)
(0.6302 -0.000403848 0.0200352)
(0.646628 -0.000210052 0.000534809)
(0.627372 -2.75243e-05 0.000616796)
(0.626363 -1.83011e-05 3.91599e-05)
(0.62504 -5.68048e-06 5.684e-06)
(0.632396 -0.0005876 0.00208384)
(0.631844 -0.000608993 0.00651507)
(0.647865 -0.000914943 2.42634e-05)
(0.631627 -0.000857707 0.0114194)
(0.647637 -0.000853362 0.000108779)
(0.627534 -0.000220777 0.000109415)
(0.631331 -0.000759663 0.0165911)
(0.647279 -0.000671105 0.000285416)
(0.62746 -0.000154977 0.000347702)
(0.626374 -8.77748e-05 1.17763e-05)
(0.631994 -0.00122339 0.0218319)
(0.646911 -0.000520583 0.000612084)
(0.627416 -8.83986e-05 0.000626305)
(0.626366 -5.32181e-05 3.9099e-05)
(0.625042 -1.81716e-05 5.71703e-06)
(0.632155 -0.000602792 0.0256309)
(0.646316 -0.000225918 0.00105709)
(0.627374 -2.72378e-05 0.000946002)
(0.626359 -1.83243e-05 7.56385e-05)
(0.62504 -5.67669e-06 1.82786e-05)
(0.624974 -3.34195e-06 6.77375e-07)
(0.633057 -0.000474496 0.00208382)
(0.632732 -0.000614337 0.00653339)
(0.64804 -0.000954229 2.72072e-05)
(0.632528 -0.00069013 0.0114474)
(0.647807 -0.000916246 0.000113649)
(0.627614 -0.000276096 0.000109639)
(0.632645 -0.00102166 0.0168818)
(0.647521 -0.000857818 0.000311842)
(0.627534 -0.000220773 0.000349816)
(0.626385 -0.000122679 1.18774e-05)
(0.632684 -0.00103821 0.0222684)
(0.64707 -0.000684099 0.000623492)
(0.627461 -0.000155017 0.000629851)
(0.626372 -8.77672e-05 3.91291e-05)
(0.625045 -3.2364e-05 5.73348e-06)
(0.633578 -0.00142012 0.0274709)
(0.646561 -0.000540773 0.00115784)
(0.627418 -8.79564e-05 0.00095973)
(0.626361 -5.32466e-05 7.55306e-05)
(0.625042 -1.81643e-05 1.83854e-05)
(0.624974 -1.0276e-05 6.74898e-07)
(0.634036 -0.000680786 0.031314)
(0.645804 -0.00024143 0.00187272)
(0.627374 -2.67164e-05 0.00132974)
(0.62635 -1.83711e-05 0.000123488)
(0.62504 -5.6665e-06 3.3452e-05)
(0.624974 -3.34118e-06 2.22392e-06)
(0.624945 -1.57146e-06 1.97617e-07)
(0.633582 -0.000400204 0.00208425)
(0.633392 -0.000497857 0.00653394)
(0.64818 -0.000927402 2.90991e-05)
(0.633412 -0.00068176 0.0114821)
(0.647982 -0.000955193 0.000122964)
(0.627708 -0.000325522 0.000109893)
(0.633539 -0.000830408 0.0169321)
(0.647691 -0.000920028 0.000321182)
(0.627615 -0.000276127 0.000350572)
(0.626399 -0.0001554 1.19672e-05)
(0.633947 -0.00124025 0.0226608)
(0.647307 -0.000866234 0.0006634)
(0.627536 -0.000220822 0.000633709)
(0.626382 -0.00012266 3.9444e-05)
(0.62505 -4.76595e-05 5.74268e-06)
(0.634227 -0.00131988 0.0279917)
(0.646713 -0.000702886 0.00117808)
(0.627463 -0.000155118 0.000965105)
(0.626367 -8.7756e-05 7.55962e-05)
(0.625045 -3.23603e-05 1.8437e-05)
(0.624975 -1.7813e-05 6.74952e-07)
(0.635123 -0.00148354 0.0329745)
(0.646003 -0.00056135 0.00199014)
(0.627416 -8.71557e-05 0.00134704)
(0.626352 -5.33028e-05 0.000123354)
(0.625041 -1.81479e-05 3.36421e-05)
(0.624974 -1.02755e-05 2.21508e-06)
(0.624946 -4.91594e-06 1.98223e-07)
(0.635431 -0.000625944 0.0368366)
(0.645015 -0.000250238 0.00303707)
(0.627365 -2.57641e-05 0.00176774)
(0.626334 -1.84459e-05 0.000185878)
(0.625039 -5.64626e-06 5.18212e-05)
(0.624974 -3.34125e-06 4.21355e-06)
(0.624945 -1.5729e-06 6.35206e-07)
(0.62497 -8.30793e-07 1.42006e-08)
(0.633958 -0.000305265 0.00208367)
(0.633917 -0.00042059 0.00653566)
(0.648305 -0.000877817 3.10089e-05)
(0.63407 -0.000556481 0.0114853)
(0.648122 -0.000928292 0.000128997)
(0.627804 -0.000361651 0.00010995)
(0.634414 -0.000798573 0.0169871)
(0.647866 -0.000958085 0.000337798)
(0.627709 -0.000325557 0.000351419)
(0.626419 -0.000185783 1.21003e-05)
(0.634826 -0.00102184 0.0227423)
(0.647477 -0.000927165 0.000678748)
(0.627616 -0.00027624 0.000635205)
(0.626397 -0.000155378 3.97288e-05)
(0.625057 -6.38567e-05 5.74942e-06)
(0.635411 -0.00146936 0.0284784)
(0.646943 -0.000878295 0.00123305)
(0.627537 -0.000220928 0.000970977)
(0.626378 -0.000122622 7.61443e-05)
(0.62505 -4.76569e-05 1.84686e-05)
(0.624976 -2.59561e-05 6.77246e-07)
(0.635725 -0.0015231 0.0335365)
(0.646145 -0.000723692 0.00202168)
(0.627462 -0.000155192 0.00135431)
(0.626358 -8.77376e-05 0.000123478)
(0.625044 -3.23524e-05 3.37356e-05)
(0.624975 -1.78116e-05 2.21598e-06)
(0.624946 -8.61341e-06 1.99455e-07)
(0.636251 -0.00138378 0.0381664)
(0.645164 -0.000573673 0.00316076)
(0.627406 -8.56984e-05 0.001787)
(0.626336 -5.33895e-05 0.000185772)
(0.62504 -1.81165e-05 5.20991e-05)
(0.624974 -1.02757e-05 4.1983e-06)
(0.624946 -4.91661e-06 6.38395e-07)
(0.62497 -2.55594e-06 1.40847e-08)
(0.63589 -0.000488371 0.0419002)
(0.643862 -0.000247825 0.00456134)
(0.627335 -2.41991e-05 0.00225847)
(0.626307 -1.85396e-05 0.000266219)
(0.625037 -5.61189e-06 7.36696e-05)
(0.624973 -3.34238e-06 6.75448e-06)
(0.624945 -1.57377e-06 1.16178e-06)
(0.62497 -8.29747e-07 4.7214e-08)
(0.624983 -3.91822e-07 2.82658e-09)
(0.634226 -0.000223316 0.0020832)
(0.634292 -0.000323386 0.00653411)
(0.648406 -0.000802732 3.23725e-05)
(0.634593 -0.000471678 0.0114896)
(0.648247 -0.000878613 0.000135044)
(0.627902 -0.000387192 0.000109994)
(0.635068 -0.00065814 0.0169951)
(0.648006 -0.000930906 0.000348717)
(0.627805 -0.0003617 0.000351645)
(0.626442 -0.000212004 1.22263e-05)
(0.635683 -0.000958899 0.0228221)
(0.647651 -0.000963578 0.000703925)
(0.62771 -0.00032567 0.000636833)
(0.626416 -0.000185758 4.0147e-05)
(0.625067 -8.0475e-05 5.75379e-06)
(0.636263 -0.00123289 0.0286002)
(0.647111 -0.000937538 0.00125647)
(0.627617 -0.000276459 0.000973432)
(0.626392 -0.000155334 7.66506e-05)
(0.625057 -6.38546e-05 1.84902e-05)
(0.624979 -3.46038e-05 6.79781e-07)
(0.636802 -0.00164699 0.0340929)
(0.646362 -0.00089106 0.00209243)
(0.627535 -0.000221022 0.00136235)
(0.626368 -0.000122552 0.000124288)
(0.625049 -4.76518e-05 3.37957e-05)
(0.624976 -2.59542e-05 2.2222e-06)
(0.624947 -1.26715e-05 1.99073e-07)
(0.636801 -0.00158925 0.0387167)
(0.645292 -0.000739045 0.00320474)
(0.627451 -0.000154973 0.00179592)
(0.626342 -8.77015e-05 0.000185992)
(0.625043 -3.23372e-05 5.22396e-05)
(0.624975 -1.78101e-05 4.19913e-06)
(0.624946 -8.61405e-06 6.41181e-07)
(0.62497 -4.46146e-06 1.37192e-08)
(0.636509 -0.00116495 0.0428481)
(0.643966 -0.00056995 0.00468081)
(0.627373 -8.32539e-05 0.00227734)
(0.62631 -5.34886e-05 0.000266227)
(0.625039 -1.80635e-05 7.40242e-05)
(0.624974 -1.02769e-05 6.73272e-06)
(0.624946 -4.91676e-06 1.16666e-06)
(0.62497 -2.55582e-06 4.5838e-08)
(0.624983 -1.24143e-06 1.65776e-09)
(0.635032 -0.000336296 0.0461603)
(0.642269 -0.000234327 0.00639557)
(0.627263 -2.20391e-05 0.00279699)
(0.626266 -1.86213e-05 0.000367366)
(0.625034 -5.56081e-06 9.91948e-05)
(0.624973 -3.34482e-06 9.97301e-06)
(0.624945 -1.57411e-06 1.79903e-06)
(0.62497 -8.29054e-07 9.14525e-08)
(0.624983 -3.93021e-07 8.94515e-09)
(0.624993 -2.0025e-07 4.32207e-10)
(0.634407 -0.000145445 0.00208264)
(0.63456 -0.00023953 0.00653281)
(0.648489 -0.000719412 3.34497e-05)
(0.634968 -0.000368707 0.0114877)
(0.648348 -0.000803488 0.000139369)
(0.627994 -0.000399608 0.000109962)
(0.635586 -0.000560271 0.0170029)
(0.648131 -0.000880936 0.000359521)
(0.627902 -0.000387241 0.000351823)
(0.62647 -0.000233585 1.23578e-05)
(0.636327 -0.000798423 0.0228376)
(0.647791 -0.000935873 0.000720756)
(0.627806 -0.000361837 0.000637376)
(0.62644 -0.000211981 4.0546e-05)
(0.625079 -9.69377e-05 5.75661e-06)
(0.637093 -0.00113794 0.0287091)
(0.647284 -0.000971545 0.0012915)
(0.627711 -0.000325888 0.000976045)
(0.626411 -0.000185707 7.73892e-05)
(0.625067 -8.04733e-05 1.85065e-05)
(0.624982 -4.36381e-05 6.84429e-07)
(0.637615 -0.00141666 0.0342609)
(0.646528 -0.00094897 0.00212643)
(0.627615 -0.000276755 0.00136599)
(0.626383 -0.000155252 0.000125053)
(0.625057 -6.38509e-05 3.38386e-05)
(0.624979 -3.46014e-05 2.2309e-06)
(0.624948 -1.7066e-05 2.00214e-07)
(0.637751 -0.00172398 0.0393013)
(0.645493 -0.000898701 0.00329056)
(0.627523 -0.000220887 0.00180604)
(0.626352 -0.000122431 0.000187089)
(0.625049 -4.76421e-05 5.23341e-05)
(0.624976 -2.59518e-05 4.21012e-06)
(0.624947 -1.26717e-05 6.41295e-07)
(0.62497 -6.54755e-06 1.44205e-08)
(0.637004 -0.00151526 0.0433374)
(0.644076 -0.000740616 0.00473651)
(0.627418 -0.000154006 0.0022873)
(0.626315 -8.76218e-05 0.0002666)
(0.625042 -3.23108e-05 7.42122e-05)
(0.624974 -1.78081e-05 6.73336e-06)
(0.624946 -8.6144e-06 1.17218e-06)
(0.62497 -4.46143e-06 4.57293e-08)
(0.624983 -2.16902e-06 2.97566e-09)
(0.635504 -0.000907668 0.0467638)
(0.642334 -0.000547844 0.00650325)
(0.627299 -7.97035e-05 0.00281312)
(0.626268 -5.35467e-05 0.000367586)
(0.625036 -1.79837e-05 9.9593e-05)
(0.624973 -1.02794e-05 9.94612e-06)
(0.624946 -4.91625e-06 1.80576e-06)
(0.62497 -2.55583e-06 8.95975e-08)
(0.624983 -1.24177e-06 6.43767e-09)
(0.624993 -5.97703e-07 1.34371e-09)
(0.632668 -0.0002136 0.0492697)
(0.640182 -0.00021352 0.00841986)
(0.627121 -1.96324e-05 0.00337099)
(0.626204 -1.86428e-05 0.000490695)
(0.62503 -5.49504e-06 0.000128507)
(0.624972 -3.34875e-06 1.40011e-05)
(0.624945 -1.57387e-06 2.55637e-06)
(0.62497 -8.28662e-07 1.49386e-07)
(0.624983 -3.94078e-07 1.60923e-08)
(0.624993 -1.99208e-07 1.67527e-09)
(0.624998 -7.87129e-08 -9.39744e-10)
(0.634526 -7.7909e-05 0.00208216)
(0.63474 -0.000160088 0.00653114)
(0.648553 -0.000632015 3.41988e-05)
(0.635234 -0.000280036 0.0114859)
(0.648431 -0.000720124 0.000142773)
(0.62808 -0.000400627 0.000109913)
(0.635958 -0.000447285 0.0170011)
(0.648232 -0.000805659 0.000367264)
(0.627995 -0.000399659 0.000351753)
(0.626501 -0.000249474 1.24733e-05)
(0.636837 -0.000682704 0.0228501)
(0.647916 -0.000885362 0.000737151)
(0.627903 -0.000387377 0.000637804)
(0.626468 -0.000233564 4.09605e-05)
(0.625094 -0.000112641 5.75738e-06)
(0.637721 -0.000957139 0.0287356)
(0.647424 -0.000943165 0.00131541)
(0.627807 -0.000362101 0.000977065)
(0.626435 -0.000211934 7.80965e-05)
(0.625079 -9.69364e-05 1.85158e-05)
(0.624986 -5.28736e-05 6.8896e-07)
(0.638405 -0.00129875 0.0344013)
(0.646698 -0.000980211 0.00217253)
(0.627708 -0.000326198 0.0013698)
(0.626402 -0.000185613 0.000126157)
(0.625067 -8.04706e-05 3.38712e-05)
(0.624982 -4.36354e-05 2.24456e-06)
(0.624949 -2.17737e-05 1.99428e-07)
(0.638511 -0.00153312 0.0395138)
(0.645653 -0.000956903 0.00333753)
(0.627602 -0.000276976 0.00181105)
(0.626367 -0.000155108 0.000188155)
(0.625056 -6.38442e-05 5.24037e-05)
(0.624978 -3.45983e-05 4.22455e-06)
(0.624948 -1.70657e-05 6.4363e-07)
(0.624971 -8.81787e-06 1.38626e-08)
(0.637818 -0.00168814 0.0438992)
(0.644256 -0.000894477 0.00483468)
(0.627488 -0.000220121 0.00229909)
(0.626325 -0.000122224 0.000268003)
(0.625047 -4.76248e-05 7.43449e-05)
(0.624976 -2.59484e-05 6.7493e-06)
(0.624947 -1.26716e-05 1.17189e-06)
(0.62497 -6.54739e-06 4.70091e-08)
(0.624983 -3.19684e-06 1.37884e-09)
(0.635942 -0.00134514 0.0471628)
(0.642426 -0.00072359 0.00656807)
(0.627343 -0.00015181 0.00282323)
(0.626273 -8.74467e-05 0.000368177)
(0.625039 -3.22684e-05 9.98197e-05)
(0.624974 -1.78055e-05 9.9464e-06)
(0.624946 -8.61436e-06 1.81415e-06)
(0.62497 -4.46133e-06 8.88157e-08)
(0.624983 -2.16912e-06 9.42625e-09)
(0.624993 -1.04489e-06 2.3588e-10)
(0.633029 -0.000676998 0.0496157)
(0.640219 -0.000510861 0.00851227)
(0.627155 -7.53986e-05 0.00338288)
(0.626205 -5.34774e-05 0.000491188)
(0.625031 -1.78779e-05 0.000128897)
(0.624972 -1.02834e-05 1.39715e-05)
(0.624945 -4.91485e-06 2.56457e-06)
(0.62497 -2.55599e-06 1.46995e-07)
(0.624983 -1.24205e-06 1.17572e-08)
(0.624993 -5.97292e-07 3.5489e-09)
(0.624998 -2.67114e-07 -1.73859e-09)
(0.628859 -0.000132974 0.0509394)
(0.637597 -0.000189724 0.0104503)
(0.626878 -1.75328e-05 0.00395642)
(0.626113 -1.85587e-05 0.000634943)
(0.625021 -5.42272e-06 0.000161506)
(0.62497 -3.3539e-06 1.89499e-05)
(0.624945 -1.57302e-06 3.44047e-06)
(0.62497 -8.2854e-07 2.24975e-07)
(0.624983 -3.95144e-07 2.50337e-08)
(0.624993 -1.9831e-07 3.73255e-09)
(0.624998 -8.01895e-08 -3.08942e-09)
(0.625 -4.62171e-08 7.67125e-10)
(0.634601 -1.94009e-05 0.00208173)
(0.634859 -9.12232e-05 0.00652969)
(0.648602 -0.000547067 3.47243e-05)
(0.635414 -0.000196638 0.0114833)
(0.648496 -0.000632689 0.000145138)
(0.628156 -0.000390772 0.000109841)
(0.636223 -0.00035024 0.0169989)
(0.648315 -0.000722143 0.000373331)
(0.628081 -0.000400676 0.000351625)
(0.626534 -0.000259378 1.25748e-05)
(0.637205 -0.000556003 0.0228489)
(0.648018 -0.000809797 0.00074894)
(0.627996 -0.000399797 0.000637783)
(0.626498 -0.000249457 4.13262e-05)
(0.625111 -0.000126873 5.75789e-06)
(0.638219 -0.000821812 0.0287543)
(0.647549 -0.000891919 0.00133826)
(0.627904 -0.000387638 0.000977875)
(0.626463 -0.000233522 7.88323e-05)
(0.625094 -0.00011264 1.85206e-05)
(0.624992 -6.20707e-05 6.95372e-07)
(0.639011 -0.00110411 0.0344428)
(0.646838 -0.000951394 0.00220482)
(0.627803 -0.000362498 0.0013715)
(0.626426 -0.000211848 0.00012722)
(0.625079 -9.69346e-05 3.38929e-05)
(0.624986 -5.28709e-05 2.25955e-06)
(0.624951 -2.67253e-05 2.00746e-07)
(0.63925 -0.00140977 0.0396849)
(0.64582 -0.000985924 0.00339568)
(0.627695 -0.000326483 0.00181621)
(0.626386 -0.000185449 0.000189663)
(0.625066 -8.04658e-05 5.24581e-05)
(0.624982 -4.36318e-05 4.24879e-06)
(0.624949 -2.17726e-05 6.42536e-07)
(0.624971 -1.1259e-05 1.48466e-08)
(0.638512 -0.00156591 0.0441457)
(0.644409 -0.00095577 0.00489604)
(0.627567 -0.000276795 0.00230554)
(0.62634 -0.000154864 0.000269412)
(0.625054 -6.38321e-05 7.44459e-05)
(0.624978 -3.45937e-05 6.76999e-06)
(0.624948 -1.70654e-05 1.17669e-06)
(0.624971 -8.81705e-06 4.63649e-08)
(0.624984 -4.31129e-06 3.12241e-09)
(0.63662 -0.00156327 0.0476594)
(0.642581 -0.000873969 0.00667394)
(0.62741 -0.000218242 0.00283597)
(0.626283 -0.000121874 0.000369902)
(0.625044 -4.75962e-05 9.99897e-05)
(0.624975 -2.59435e-05 9.96734e-06)
(0.624947 -1.26714e-05 1.8138e-06)
(0.62497 -6.54721e-06 9.13967e-08)
(0.624983 -3.19661e-06 5.5578e-09)
(0.624993 -1.53136e-06 1.65237e-09)
(0.633404 -0.00113759 0.0499186)
(0.640293 -0.00068858 0.00858241)
(0.627197 -0.000148217 0.00339221)
(0.62621 -8.70983e-05 0.000492056)
(0.625034 -3.22067e-05 0.000129143)
(0.624973 -1.78022e-05 1.39719e-05)
(0.624946 -8.6138e-06 2.57575e-06)
(0.62497 -4.46114e-06 1.4552e-07)
(0.624983 -2.16924e-06 1.67437e-08)
(0.624993 -1.0445e-06 1.06962e-09)
(0.624998 -4.6555e-07 -7.60506e-10)
(0.629133 -0.000502261 0.0511189)
(0.637616 -0.000465056 0.0105273)
(0.626908 -7.11056e-05 0.00396373)
(0.626114 -5.31908e-05 0.000635706)
(0.625023 -1.77559e-05 0.000161832)
(0.62497 -1.02886e-05 1.89211e-05)
(0.624945 -4.91234e-06 3.44949e-06)
(0.62497 -2.55638e-06 2.22245e-07)
(0.624983 -1.24228e-06 1.93768e-08)
(0.624993 -5.96976e-07 6.93047e-09)
(0.624998 -2.68141e-07 -4.37359e-09)
(0.625 -1.217e-07 1.50997e-09)
(0.62392 -8.78551e-05 0.0509948)
(0.63458 -0.000166073 0.012264)
(0.626503 -1.61873e-05 0.00451464)
(0.625988 -1.83488e-05 0.000794941)
(0.625009 -5.35735e-06 0.000197664)
(0.624967 -3.35973e-06 2.48738e-05)
(0.624945 -1.57169e-06 4.45465e-06)
(0.62497 -8.28702e-07 3.22171e-07)
(0.624983 -3.96226e-07 3.58872e-08)
(0.624993 -1.9743e-07 6.18192e-09)
(0.624998 -8.13905e-08 -5.60318e-09)
(0.625 -4.52081e-08 2.62511e-09)
(0.625002 -1.39103e-08 3.07558e-10)
(0.634647 2.96264e-05 0.00208138)
(0.634934 -3.15895e-05 0.00652837)
(0.648636 -0.000467103 3.50757e-05)
(0.635533 -0.000124438 0.0114809)
(0.648544 -0.000547701 0.000146789)
(0.628223 -0.000372054 0.000109763)
(0.636401 -0.000259963 0.0169951)
(0.64838 -0.000634581 0.00037753)
(0.628157 -0.000390818 0.000351416)
(0.626567 -0.000263027 1.26552e-05)
(0.637466 -0.00044739 0.0228461)
(0.648101 -0.000725997 0.00075813)
(0.628082 -0.000400808 0.000637635)
(0.626531 -0.000259365 4.16467e-05)
(0.62513 -0.000138985 5.75562e-06)
(0.638579 -0.000679956 0.0287543)
(0.647651 -0.000815998 0.00135476)
(0.627996 -0.000400064 0.000977998)
(0.626494 -0.000249425 7.94815e-05)
(0.625111 -0.000126873 1.85226e-05)
(0.624999 -7.09378e-05 7.0069e-07)
(0.639493 -0.000952056 0.0344693)
(0.646963 -0.000899488 0.00223496)
(0.6279 -0.000388041 0.00137285)
(0.626454 -0.000233446 0.000128325)
(0.625094 -0.000112639 3.39053e-05)
(0.624992 -6.20682e-05 2.2789e-06)
(0.624954 -3.1842e-05 1.99751e-07)
(0.639828 -0.00121373 0.039745)
(0.645958 -0.000957602 0.00343763)
(0.62779 -0.00036295 0.00181882)
(0.62641 -0.000211696 0.000191124)
(0.625078 -9.69315e-05 5.24974e-05)
(0.624986 -5.28673e-05 4.27442e-06)
(0.624951 -2.67233e-05 6.4532e-07)
(0.624972 -1.38582e-05 1.41528e-08)
(0.639191 -0.00145767 0.0443427)
(0.644569 -0.00098424 0.00496657)
(0.627658 -0.000326477 0.00231216)
(0.626359 -0.000185176 0.000271355)
(0.625064 -8.04571e-05 7.45276e-05)
(0.624981 -4.36265e-05 6.8057e-06)
(0.624949 -2.17715e-05 1.17424e-06)
(0.624971 -1.12574e-05 4.84746e-08)
(0.624984 -5.52464e-06 1.19634e-09)
(0.637238 -0.00152337 0.0479221)
(0.642724 -0.000941349 0.00674925)
(0.627487 -0.000275769 0.00284378)
(0.626297 -0.000154463 0.000371695)
(0.625052 -6.38115e-05 0.000100123)
(0.624977 -3.4587e-05 9.9944e-06)
(0.624948 -1.7065e-05 1.82102e-06)
(0.624971 -8.81628e-06 8.96755e-08)
(0.624984 -4.31111e-06 9.79896e-09)
(0.624993 -2.069e-06 1.47287e-10)
(0.633956 -0.00138999 0.0503267)
(0.640422 -0.000836864 0.00869043)
(0.627261 -0.000214948 0.00340499)
(0.62622 -0.000121307 0.000494106)
(0.625039 -4.75522e-05 0.000129342)
(0.624974 -2.59366e-05 1.39972e-05)
(0.624947 -1.26708e-05 2.57552e-06)
(0.62497 -6.54694e-06 1.49276e-07)
(0.624983 -3.19644e-06 1.02019e-08)
(0.624993 -1.53107e-06 4.5261e-09)
(0.624998 -6.9228e-07 -2.08403e-09)
(0.629444 -0.000938493 0.0513367)
(0.637675 -0.000640186 0.0105985)
(0.626948 -0.00014355 0.0039716)
(0.626119 -8.64914e-05 0.000636879)
(0.625026 -3.21259e-05 0.000162071)
(0.624971 -1.77978e-05 1.89223e-05)
(0.624946 -8.61247e-06 3.46264e-06)
(0.62497 -4.46086e-06 2.19935e-07)
(0.624983 -2.16939e-06 2.58174e-08)
(0.624993 -1.04414e-06 2.83742e-09)
(0.624998 -4.66683e-07 -2.46429e-09)
(0.625 -2.13461e-07 6.27224e-10)
(0.624126 -0.000383702 0.0510792)
(0.634588 -0.000416179 0.012327)
(0.626529 -6.76021e-05 0.00451801)
(0.625989 -5.2634e-05 0.00079591)
(0.62501 -1.76368e-05 0.000197885)
(0.624968 -1.02943e-05 2.48485e-05)
(0.624945 -4.90881e-06 4.46333e-06)
(0.62497 -2.55703e-06 3.19159e-07)
(0.624983 -1.24246e-06 2.97082e-08)
(0.624993 -5.96713e-07 1.022e-08)
(0.624998 -2.68972e-07 -8.13732e-09)
(0.625 -1.21683e-07 3.90478e-09)
(0.625002 -4.65267e-08 2.68861e-10)
(0.618337 -6.5931e-05 0.0494248)
(0.631264 -0.000144349 0.0136411)
(0.625978 -1.57387e-05 0.00499406)
(0.625822 -1.80261e-05 0.000960668)
(0.624989 -5.31411e-06 0.000235753)
(0.624964 -3.36549e-06 3.17235e-05)
(0.624945 -1.57014e-06 5.59582e-06)
(0.624969 -8.29075e-07 4.44697e-07)
(0.624983 -3.9733e-07 4.91356e-08)
(0.624993 -1.96585e-07 9.20611e-09)
(0.624998 -8.24821e-08 -8.36244e-09)
(0.625 -4.43812e-08 5.19897e-09)
(0.625002 -1.42829e-08 1.15208e-09)
(0.625002 -8.76477e-09 7.20982e-10)
(0.634673 7.00804e-05 0.00208109)
(0.63498 1.84007e-05 0.00652728)
(0.648658 -0.000394116 3.53099e-05)
(0.635608 -6.1983e-05 0.0114786)
(0.648578 -0.000467699 0.000147888)
(0.628278 -0.00034635 0.000109685)
(0.636519 -0.000181966 0.0169915)
(0.648428 -0.000549468 0.000380444)
(0.628223 -0.000372096 0.000351186)
(0.626601 -0.000260636 1.27178e-05)
(0.637643 -0.000347598 0.0228409)
(0.648166 -0.000638195 0.000764476)
(0.628158 -0.000390943 0.000637328)
(0.626565 -0.000263017 4.19011e-05)
(0.625151 -0.000148365 5.75392e-06)
(0.638836 -0.000558286 0.028751)
(0.647734 -0.000731823 0.00136755)
(0.628082 -0.000401064 0.000977896)
(0.626526 -0.00025934 8.00514e-05)
(0.62513 -0.000138985 1.85177e-05)
(0.625007 -7.91407e-05 7.07582e-07)
(0.639843 -0.000797027 0.0344715)
(0.647065 -0.000823376 0.00225687)
(0.627992 -0.000400485 0.00137326)
(0.626484 -0.000249364 0.000129301)
(0.625111 -0.000126872 3.39136e-05)
(0.624999 -7.09358e-05 2.29638e-06)
(0.624957 -3.69926e-05 2.01268e-07)
(0.640289 -0.00105211 0.0397809)
(0.646082 -0.000905645 0.00347583)
(0.627886 -0.000388535 0.00182092)
(0.626437 -0.000233312 0.000192639)
(0.625093 -0.000112637 5.25224e-05)
(0.624992 -6.20647e-05 4.30866e-06)
(0.624954 -3.18391e-05 6.43538e-07)
(0.624973 -1.65777e-05 1.55132e-08)
(0.639733 -0.00127523 0.0444241)
(0.644706 -0.000958169 0.00501914)
(0.627752 -0.00036325 0.00231589)
(0.626383 -0.000211445 0.00027325)
(0.625076 -9.69259e-05 7.45907e-05)
(0.624986 -5.28617e-05 6.84326e-06)
(0.624951 -2.67216e-05 1.17992e-06)
(0.624972 -1.38558e-05 4.72994e-08)
(0.624984 -6.81998e-06 3.29785e-09)
(0.637847 -0.00144738 0.0481361)
(0.642876 -0.000971756 0.00683139)
(0.627576 -0.000325801 0.00285183)
(0.626317 -0.000184739 0.000374092)
(0.625061 -8.04418e-05 0.000100237)
(0.624981 -4.36185e-05 1.00421e-05)
(0.624949 -2.17704e-05 1.81761e-06)
(0.624971 -1.12559e-05 9.3773e-08)
(0.624984 -5.52447e-06 4.92631e-09)
(0.624993 -2.6482e-06 1.83521e-09)
(0.634491 -0.00142785 0.0505858)
(0.640553 -0.000912275 0.00877703)
(0.627335 -0.000273517 0.00341391)
(0.626234 -0.000153831 0.000496314)
(0.625047 -6.37784e-05 0.000129505)
(0.624976 -3.45773e-05 1.40308e-05)
(0.624948 -1.70643e-05 2.58514e-06)
(0.624971 -8.81544e-06 1.46607e-07)
(0.624984 -4.31099e-06 1.75136e-08)
(0.624993 -2.06858e-06 8.2023e-10)
(0.624998 -9.34817e-07 -6.82842e-10)
(0.629884 -0.00120597 0.0516538)
(0.63778 -0.000786336 0.0107034)
(0.627008 -0.000210313 0.00398355)
(0.626129 -0.000120442 0.000639234)
(0.625031 -4.74902e-05 0.000162282)
(0.624972 -2.59271e-05 1.89512e-05)
(0.624946 -1.26697e-05 3.46297e-06)
(0.62497 -6.54661e-06 2.24645e-07)
(0.624983 -3.19629e-06 1.72454e-08)
(0.624993 -1.53081e-06 8.66778e-09)
(0.624998 -6.93313e-07 -5.4051e-09)
(0.625 -3.0982e-07 1.83206e-09)
(0.624374 -0.000771372 0.0512307)
(0.634633 -0.000584434 0.0123953)
(0.626566 -0.000138464 0.00452414)
(0.625993 -8.5567e-05 0.000797366)
(0.625013 -3.20325e-05 0.000198087)
(0.624968 -1.77918e-05 2.48518e-05)
(0.624946 -8.61035e-06 4.47697e-06)
(0.62497 -4.46053e-06 3.16293e-07)
(0.624983 -2.16957e-06 3.67186e-08)
(0.624993 -1.04375e-06 5.00124e-09)
(0.624998 -4.67693e-07 -4.72254e-09)
(0.625 -2.138e-07 2.22076e-09)
(0.625002 -8.01142e-08 3.88693e-10)
(0.61849 -0.000308264 0.0494607)
(0.631267 -0.000368573 0.0136922)
(0.626001 -6.53063e-05 0.00499461)
(0.625823 -5.18135e-05 0.000961741)
(0.624991 -1.75448e-05 0.00023585)
(0.624964 -1.02993e-05 3.17031e-05)
(0.624945 -4.90467e-06 5.60309e-06)
(0.62497 -2.55796e-06 4.41566e-07)
(0.624983 -1.24259e-06 4.31288e-08)
(0.624993 -5.96524e-07 1.3381e-08)
(0.624998 -2.69692e-07 -1.18376e-08)
(0.625 -1.21691e-07 7.61348e-09)
(0.625002 -4.67405e-08 1.4156e-09)
(0.625002 -1.95377e-08 9.84872e-10)
(0.61265 -5.66195e-05 0.0463978)
(0.627838 -0.000125408 0.0144157)
(0.625311 -1.60437e-05 0.005338)
(0.625615 -1.7629e-05 0.00111733)
(0.624962 -5.30456e-06 0.000273598)
(0.624958 -3.37062e-06 3.92898e-05)
(0.624944 -1.56871e-06 6.84644e-06)
(0.624969 -8.29628e-07 5.94335e-07)
(0.624983 -3.98424e-07 6.48704e-08)
(0.624993 -1.95783e-07 1.26288e-08)
(0.624998 -8.35044e-08 -1.13894e-08)
(0.625 -4.36178e-08 7.99692e-09)
(0.625002 -1.45377e-08 2.30938e-09)
(0.625002 -8.38694e-09 2.49988e-09)
(0.625003 -9.94475e-09 1.8711e-09)
(-1.1856e-06 -1.44493e-05 1.35503e-06)
(0.634687 0.000102741 0.00208086)
(0.635007 5.96857e-05 0.00652638)
(0.648671 -0.000328795 3.54663e-05)
(0.635654 -9.58231e-06 0.0114767)
(0.6486 -0.000394674 0.000148615)
(0.628323 -0.000315875 0.000109612)
(0.636594 -0.000114609 0.016988)
(0.648462 -0.000469348 0.000382367)
(0.628278 -0.000346389 0.000350951)
(0.626632 -0.000252656 1.27624e-05)
(0.637759 -0.000261559 0.0228357)
(0.648214 -0.000552843 0.000768857)
(0.628224 -0.000372212 0.000636965)
(0.626598 -0.000260629 4.20983e-05)
(0.625172 -0.000154548 5.74858e-06)
(0.639009 -0.000447694 0.0287441)
(0.647799 -0.000643696 0.00137637)
(0.628158 -0.000391188 0.000977529)
(0.62656 -0.000262999 8.05032e-05)
(0.625151 -0.000148365 1.85127e-05)
(0.625017 -8.63223e-05 7.12171e-07)
(0.640093 -0.000663407 0.0344678)
(0.647148 -0.00073891 0.00227374)
(0.628078 -0.000401475 0.0013733)
(0.626517 -0.000259295 0.000130157)
(0.62513 -0.000138986 3.39081e-05)
(0.625007 -7.91383e-05 2.31749e-06)
(0.624962 -4.20316e-05 2.00373e-07)
(0.640627 -0.000888932 0.0397867)
(0.646184 -0.00082993 0.00350382)
(0.627977 -0.000401029 0.00182177)
(0.626468 -0.000249259 0.000193981)
(0.62511 -0.000126872 5.25412e-05)
(0.624998 -7.09327e-05 4.33885e-06)
(0.624957 -3.69893e-05 6.46857e-07)
(0.624975 -1.93773e-05 1.4681e-08)
(0.64017 -0.00111353 0.0444719)
(0.644829 -0.000907436 0.00506593)
(0.627847 -0.000388955 0.00231892)
(0.62641 -0.00023309 0.000275208)
(0.625091 -0.000112633 7.46346e-05)
(0.624991 -6.20592e-05 6.89373e-06)
(0.624954 -3.18365e-05 1.17626e-06)
(0.624973 -1.65747e-05 5.05967e-08)
(0.624985 -8.19879e-06 1.06703e-09)
(0.638347 -0.00129213 0.0482391)
(0.64301 -0.000950293 0.00689482)
(0.627669 -0.000363083 0.00285686)
(0.62634 -0.000211042 0.00037645)
(0.625074 -9.69154e-05 0.00010033)
(0.624985 -5.28532e-05 1.00922e-05)
(0.624951 -2.67199e-05 1.82606e-06)
(0.624972 -1.38538e-05 9.12185e-08)
(0.624984 -6.81994e-06 1.0319e-08)
(0.624993 -3.27702e-06 5.36195e-11)
(0.635023 -0.00139348 0.0508051)
(0.640695 -0.000947228 0.00886855)
(0.627422 -0.0003241 0.00342325)
(0.626253 -0.000184066 0.000499171)
(0.625056 -8.0416e-05 0.000129653)
(0.62498 -4.36069e-05 1.40898e-05)
(0.624949 -2.17692e-05 2.58102e-06)
(0.624971 -1.12545e-05 1.52519e-07)
(0.624984 -5.52434e-06 9.07575e-09)
(0.624993 -2.6478e-06 5.10569e-09)
(0.624998 -1.20611e-06 -2.40606e-09)
(0.630334 -0.0013042 0.0518929)
(0.637897 -0.000869986 0.0107968)
(0.627079 -0.000269897 0.00399319)
(0.626142 -0.000152884 0.000641862)
(0.625038 -6.37288e-05 0.000162467)
(0.624975 -3.45638e-05 1.89912e-05)
(0.624948 -1.70633e-05 3.47428e-06)
(0.624971 -8.81453e-06 2.21036e-07)
(0.624984 -4.31089e-06 2.69499e-08)
(0.624993 -2.06822e-06 2.32463e-09)
(0.624998 -9.35938e-07 -2.28404e-09)
(0.625 -4.21656e-07 5.53597e-10)
(0.62472 -0.00103601 0.0514682)
(0.634718 -0.00072734 0.012493)
(0.626621 -0.000204748 0.00453466)
(0.626002 -0.00011922 0.000799974)
(0.625018 -4.74112e-05 0.000198289)
(0.62497 -2.59143e-05 2.48832e-05)
(0.624946 -1.26682e-05 4.47807e-06)
(0.62497 -6.54619e-06 3.21379e-07)
(0.624983 -3.19614e-06 2.72095e-08)
(0.624993 -1.53056e-06 1.26329e-08)
(0.624998 -6.9422e-07 -9.98129e-09)
(0.625 -3.10358e-07 5.00365e-09)
(0.625002 -1.1914e-07 2.09138e-10)
(0.618684 -0.000641761 0.049565)
(0.631302 -0.000527014 0.0137544)
(0.626035 -0.0001336 0.00499908)
(0.625828 -8.43178e-05 0.000963409)
(0.624994 -3.19391e-05 0.000235993)
(0.624965 -1.77838e-05 3.1709e-05)
(0.624945 -8.6075e-06 5.61541e-06)
(0.62497 -4.46019e-06 4.38492e-07)
(0.624983 -2.16978e-06 4.9898e-08)
(0.624993 -1.04329e-06 7.7867e-09)
(0.624998 -4.68692e-07 -7.24932e-09)
(0.625 -2.14042e-07 4.61121e-09)
(0.625002 -8.02961e-08 1.44526e-09)
(0.625002 -3.26089e-08 7.32266e-10)
(0.612762 -0.000261313 0.0464116)
(0.62784 -0.000325155 0.014457)
(0.625331 -6.41938e-05 0.00533687)
(0.625615 -5.07917e-05 0.0011184)
(0.624963 -1.75015e-05 0.000273578)
(0.624958 -1.03027e-05 3.92739e-05)
(0.624944 -4.90066e-06 6.85106e-06)
(0.624969 -2.5591e-06 5.91117e-07)
(0.624983 -1.24271e-06 5.96765e-08)
(0.624993 -5.96427e-07 1.64197e-08)
(0.624998 -2.70297e-07 -1.53997e-08)
(0.625 -1.21718e-07 1.12326e-08)
(0.625002 -4.69011e-08 2.57599e-09)
(0.625002 -1.93603e-08 2.95724e-09)
(0.625003 -2.25934e-09 4.24147e-09)
(0.607327 -5.31455e-05 0.0422323)
(0.624514 -0.000109538 0.014516)
(0.624534 -1.68146e-05 0.00549799)
(0.625368 -1.72052e-05 0.00124715)
(0.624924 -5.3333e-06 0.000308041)
(0.624951 -3.37517e-06 4.71554e-05)
(0.624943 -1.56799e-06 8.16593e-06)
(0.624969 -8.30324e-07 7.70477e-07)
(0.624983 -3.9946e-07 8.34581e-08)
(0.624993 -1.95062e-07 1.65853e-08)
(0.624998 -8.44553e-08 -1.43791e-08)
(0.625 -4.28914e-08 1.10727e-08)
(0.625002 -1.47113e-08 3.47605e-09)
(0.625002 -8.0802e-09 4.89556e-09)
(0.625003 -9.92192e-09 6.5733e-09)
(0.625003 6.41384e-09 -1.80354e-10)
(-4.29427e-06 -2.16124e-05 2.3717e-06)
(-1.17596e-06 -1.30957e-05 1.68394e-06)
(-9.37936e-07 -1.07494e-05 1.52025e-06)
(0.634693 0.000128591 0.00208068)
(0.635021 9.30682e-05 0.00652566)
(0.648677 -0.00027133 3.55723e-05)
(0.63568 3.37777e-05 0.0114751)
(0.648613 -0.000329318 0.000149097)
(0.628358 -0.000282668 0.000109549)
(0.636639 -5.80207e-05 0.016985)
(0.648484 -0.000396213 0.000383625)
(0.628324 -0.000315911 0.000350728)
(0.626662 -0.000239853 1.27945e-05)
(0.637833 -0.000187399 0.0228306)
(0.648248 -0.0004725 0.000771725)
(0.628279 -0.000346496 0.00063658)
(0.62663 -0.00025265 4.22392e-05)