/*--------------------------------*- C++ -*----------------------------------*\
  =========                 |
  \\      /  F ield         | OpenFOAM: The Open Source CFD Toolbox
   \\    /   O peration     | Website:  https://openfoam.org
    \\  /    A nd           | Version:  7
     \\/     M anipulation  |
\*---------------------------------------------------------------------------*/
FoamFile
{
    version     2.0;
    format      ascii;
    class       surfaceScalarField;
    location    "200";
    object      phi;
}
// * * * * * * * * * * * * * * * * * * * * * * * * * * * * * * * * * * * * * //

dimensions      [0 3 -1 0 0 0 0];

internalField   nonuniform List<scalar> 
125460
(
1.15854e-17
-8.2557e-18
3.10816e-11
2.58823e-17
-1.15182e-17
3.44851e-11
1.4907e-17
-9.8367e-18
3.92856e-11
-1.60775e-16
1.07165e-15
3.10817e-11
4.20666e-17
-1.11945e-17
3.81993e-11
3.36215e-17
-1.46762e-17
4.35875e-11
2.5224e-16
3.17464e-15
3.44853e-11
1.913e-17
-1.39327e-17
4.94312e-11
-2.25133e-16
2.79255e-15
3.92858e-11
2.2007e-16
-9.9803e-16
3.10817e-11
5.84713e-17
-1.76223e-17
4.22374e-11
5.43777e-17
-1.35851e-17
4.82821e-11
4.42447e-16
1.24931e-15
3.81995e-11
4.33676e-17
-2.10747e-17
5.4844e-11
3.69623e-16
6.53847e-15
4.35877e-11
-1.12969e-16
-3.09362e-15
3.44852e-11
2.42958e-17
-1.62768e-17
6.18444e-11
-2.80433e-16
4.62006e-15
4.94315e-11
2.985e-16
-2.57086e-15
3.92857e-11
-1.52318e-16
9.73257e-16
3.10817e-11
7.51513e-17
-1.72473e-17
4.66094e-11
7.57621e-17
-2.60291e-17
5.3386e-11
7.99587e-16
4.30094e-15
4.22376e-11
6.99518e-17
-1.86609e-17
6.0751e-11
4.9746e-16
3.37071e-15
4.82823e-11
-2.21061e-16
-1.16076e-15
3.81994e-11
5.53639e-17
-2.48319e-17
6.86166e-11
5.05714e-16
1.01555e-14
5.48443e-11
-1.96825e-16
-6.28658e-15
4.35876e-11
1.86945e-16
2.81252e-15
3.44853e-11
3.04797e-17
-2.1641e-17
7.68241e-11
-3.06069e-16
6.82265e-15
6.18448e-11
3.70866e-16
-4.25311e-15
4.94313e-11
-2.11239e-16
2.49461e-15
3.92858e-11
2.20508e-16
-8.68954e-16
3.10816e-11
9.16835e-17
-2.68062e-17
5.13199e-11
9.71779e-17
-2.5583e-17
5.8912e-11
9.23861e-16
1.30727e-15
4.66096e-11
9.75665e-17
-3.89246e-17
6.7173e-11
1.07406e-15
8.97601e-15
5.33862e-11
-5.05507e-16
-4.23228e-15
4.22375e-11
8.91108e-17
-2.19799e-17
7.60069e-11
5.78122e-16
5.72549e-15
6.07514e-11
-2.21659e-16
-3.09818e-15
4.82822e-11
3.25525e-16
1.13532e-15
3.81995e-11
6.96426e-17
-3.13121e-17
8.52366e-11
6.67802e-16
1.27352e-14
6.8617e-11
-2.9245e-16
-9.7336e-15
5.48442e-11
2.81724e-16
5.76702e-15
4.35877e-11
-4.10593e-17
-2.70492e-15
3.44852e-11
3.77359e-17
-2.32122e-17
9.45976e-11
-2.99814e-16
8.91256e-15
7.68247e-11
4.17244e-16
-6.28816e-15
6.18446e-11
-2.6281e-16
4.11608e-15
4.94314e-11
2.96429e-16
-2.23975e-15
3.92857e-11
-7.01201e-17
4.63793e-16
3.10816e-11
1.07764e-16
-2.98172e-17
5.63719e-11
1.18855e-16
-4.5632e-17
6.48658e-11
1.22783e-15
5.53023e-15
5.13201e-11
1.25046e-16
-3.74273e-17
7.41261e-11
1.08573e-15
3.5762e-15
5.89123e-11
-5.65973e-16
-1.19932e-15
4.66095e-11
1.24407e-16
-4.75099e-17
8.40416e-11
1.40032e-15
1.40643e-14
6.71734e-11
-7.09445e-16
-8.7324e-15
5.33861e-11
6.04461e-16
3.79582e-15
4.22376e-11
1.12095e-16
-2.87885e-17
9.4417e-11
6.87315e-16
8.48776e-15
7.60074e-11
-2.36775e-16
-5.26874e-15
6.07512e-11
3.59246e-16
3.00467e-15
4.82823e-11
-1.06945e-16
-1.01716e-15
3.81994e-11
8.61446e-17
-3.34719e-17
1.04956e-10
8.68648e-16
1.48601e-14
8.52372e-11
-4.05752e-16
-1.21251e-14
6.86167e-11
3.91163e-16
8.94863e-15
5.48443e-11
-9.95128e-17
-5.49621e-15
4.35876e-11
8.27127e-17
1.31432e-15
3.44852e-11
4.5981e-17
-2.56945e-17
1.15223e-10
-2.15879e-16
1.09251e-14
9.45983e-11
4.35856e-16
-8.24162e-15
7.68243e-11
-2.8922e-16
6.0554e-15
6.18448e-11
3.68631e-16
-3.70716e-15
4.94313e-11
-9.72697e-17
1.17323e-15
3.92857e-11
9.31604e-17
-4.45136e-16
3.10816e-11
1.22134e-16
-4.23932e-17
6.17566e-11
1.394e-16
-5.25086e-17
7.12513e-11
1.27656e-15
1.428e-15
5.63721e-11
1.53162e-16
-7.04218e-17
8.16175e-11
1.62439e-15
1.16324e-14
6.48661e-11
-8.12594e-16
-5.47705e-15
5.132e-11
1.59368e-16
-4.67891e-17
9.27408e-11
1.29578e-15
6.12527e-15
7.41265e-11
-6.39419e-16
-3.25898e-15
5.89121e-11
6.72729e-16
1.18235e-15
4.66096e-11
1.56412e-16
-5.95431e-17
1.04398e-10
1.79817e-15
1.77575e-14
8.40422e-11
-9.50354e-16
-1.36503e-14
6.71732e-11
8.22015e-16
7.88547e-15
5.33862e-11
-3.30555e-16
-3.71736e-15
4.22375e-11
1.38892e-16
-3.16262e-17
1.16261e-10
8.32421e-16
1.12131e-14
9.44177e-11
-2.67131e-16
-7.82262e-15
7.60071e-11
4.12385e-16
5.08499e-15
6.07514e-11
-8.51294e-17
-2.71648e-15
4.82822e-11
1.36677e-16
5.33178e-16
3.81994e-11
1.047e-16
-3.62071e-17
1.2784e-10
1.08498e-15
1.61417e-14
1.04957e-10
-5.47708e-16
-1.40881e-14
8.52368e-11
5.21064e-16
1.1217e-14
6.8617e-11
-1.64982e-16
-8.50956e-15
5.48441e-11
1.25697e-16
2.68377e-15
4.35876e-11
-4.51334e-17
-1.31225e-15
3.44851e-11
5.50205e-17
-2.47544e-17
1.38504e-10
-6.03003e-17
1.24301e-14
1.15224e-10
3.82368e-16
-1.01102e-14
9.45977e-11
-2.88571e-16
7.89973e-15
7.68247e-11
4.19862e-16
-5.48512e-15
6.18446e-11
-1.21076e-16
1.92969e-15
4.94313e-11
1.26232e-16
-1.14696e-15
3.92856e-11
-1.59916e-17
1.23436e-16
3.10815e-11
1.32997e-16
-5.84784e-17
6.74559e-11
1.58602e-16
-8.11841e-17
7.80573e-11
1.50742e-15
6.89284e-15
6.17568e-11
1.79437e-16
-8.01735e-17
8.96521e-11
1.51558e-15
3.85616e-15
7.12517e-11
-7.96795e-16
-1.27223e-15
5.63721e-11
1.95431e-16
-9.07018e-17
1.02113e-10
2.10114e-15
1.83596e-14
8.1618e-11
-1.11076e-15
-1.14153e-14
6.4866e-11
8.89012e-16
4.85449e-15
5.13201e-11
2.00532e-16
-6.00328e-17
1.15204e-10
1.55011e-15
9.25391e-15
9.27414e-11
-7.42704e-16
-5.59422e-15
7.41263e-11
7.82284e-16
3.16712e-15
5.89123e-11
-3.65795e-16
-1.0754e-15
4.66095e-11
1.9348e-16
-6.43174e-17
1.2855e-10
2.27852e-15
2.08197e-14
1.04399e-10
-1.24502e-15
-1.71261e-14
8.40418e-11
1.0801e-15
1.2343e-14
6.71734e-11
-4.80218e-16
-7.67504e-15
5.33861e-11
2.52154e-16
1.76214e-15
4.22374e-11
1.69322e-16
-3.56159e-17
1.41609e-10
1.06807e-15
1.38004e-14
1.16261e-10
-3.18027e-16
-1.03761e-14
9.44172e-11
4.86612e-16
7.51175e-15
7.60074e-11
-7.11714e-17
-4.62076e-15
6.07511e-11
1.48339e-16
1.39288e-15
4.82822e-11
-9.43354e-17
-5.25796e-16
3.81993e-11
1.2503e-16
-3.49487e-17
1.53671e-10
1.32714e-15
1.68341e-14
1.27841e-10
-6.94059e-16
-1.52092e-14
1.04956e-10
6.8172e-16
1.30897e-14
8.52372e-11
-2.42264e-16
-1.06014e-14
6.86167e-11
1.7505e-16
4.15979e-15
5.48441e-11
-7.92075e-17
-2.69052e-15
4.35875e-11
3.16106e-17
3.70031e-16
3.44851e-11
6.43609e-17
-2.26835e-17
1.6387e-10
1.84632e-16
1.34502e-14
1.38505e-10
2.62861e-16
-1.15113e-14
1.15223e-10
-2.21336e-16
9.65821e-15
9.45982e-11
4.48599e-16
-7.1942e-15
7.68243e-11
-1.33392e-16
2.83121e-15
6.18446e-11
1.56903e-16
-1.89469e-15
4.94312e-11
-2.27242e-17
3.08417e-16
3.92856e-11
4.12371e-17
-1.59133e-16
3.10815e-11
1.3639e-16
-7.54833e-17
7.34507e-11
1.72274e-16
-1.17113e-16
8.5261e-11
1.44803e-15
1.51216e-15
6.74562e-11
2.04671e-16
-1.28076e-16
9.82157e-11
1.98426e-15
1.459e-14
7.80577e-11
-9.76689e-16
-6.89279e-15
6.17567e-11
2.28728e-16
-1.0488e-16
1.12166e-10
1.81831e-15
6.61508e-15
8.96526e-11
-9.17148e-16
-3.43839e-15
7.12515e-11
8.75477e-16
1.27738e-15
5.63721e-11
2.45914e-16
-1.15028e-16
1.26847e-10
2.69254e-15
2.33172e-14
1.02114e-10
-1.46832e-15
-1.79821e-14
8.16177e-11
1.19171e-15
1.01636e-14
6.48661e-11
-5.72343e-16
-4.84899e-15
5.132e-11
2.48576e-16
-6.64735e-17
1.41857e-10
1.8585e-15
1.24346e-14
1.15205e-10
-8.67843e-16
-8.48948e-15
9.2741e-11
9.27294e-16
5.40388e-15
7.41265e-11
-3.96444e-16
-2.91871e-15
5.89121e-11
2.67442e-16
5.4525e-16
4.66095e-11
2.35187e-16
-6.99407e-17
1.56579e-10
2.80407e-15
2.25177e-14
1.28551e-10
-1.60127e-15
-1.99963e-14
1.04398e-10
1.39464e-15
1.55731e-14
8.40421e-11
-6.55923e-16
-1.19993e-14
6.71731e-11
3.45897e-16
3.64427e-15
5.33861e-11
-2.18059e-16
-1.803e-15
4.22374e-11
2.02569e-16
-3.57645e-17
1.70222e-10
1.41293e-15
1.57916e-14
1.41611e-10
-4.4263e-16
-1.27856e-14
1.16261e-10
5.87363e-16
9.91039e-15
9.44177e-11
-6.51829e-17
-6.86334e-15
7.60071e-11
1.67946e-16
2.35042e-15
6.07511e-11
-9.49677e-17
-1.40063e-15
4.82821e-11
4.97001e-17
1.38404e-16
3.81993e-11
1.46627e-16
-3.09566e-17
1.81815e-10
1.59205e-15
1.69687e-14
1.53672e-10
-8.5445e-16
-1.57902e-14
1.27841e-10
8.52044e-16
1.42083e-14
1.04957e-10
-3.40815e-16
-1.23205e-14
8.52367e-11
2.33225e-16
5.21121e-15
6.86168e-11
-1.18109e-16
-4.17493e-15
5.4844e-11
4.61118e-17
7.4365e-16
4.35874e-11
1.0645e-17
-4.26978e-16
3.4485e-11
7.38867e-17
-1.69535e-17
1.90285e-10
4.79709e-16
1.38037e-14
1.63872e-10
5.93693e-17
-1.24526e-14
1.38504e-10
-9.29806e-17
1.09678e-14
1.15224e-10
4.15948e-16
-8.83235e-15
9.45977e-11
-1.33466e-16
3.6887e-15
7.68244e-11
1.76906e-16
-2.79496e-15
6.18444e-11
-2.82318e-17
5.05428e-16
4.94311e-11
5.48151e-17
-4.09968e-16
3.92855e-11
2.97562e-17
1.88841e-17
3.10814e-11
1.27038e-16
-1.30107e-16
7.97005e-11
1.78111e-16
-1.59609e-16
9.2838e-11
1.56303e-15
8.26187e-15
7.3451e-11
2.22031e-16
-1.8411e-16
1.0728e-10
1.71941e-15
4.02088e-15
8.52614e-11
-8.82199e-16
-1.37906e-15
6.74561e-11
2.61437e-16
-1.71943e-16
1.2288e-10
2.55964e-15
2.31609e-14
9.82163e-11
-1.32876e-15
-1.44825e-14
7.80575e-11
1.01906e-15
6.04249e-15
6.17568e-11
2.87753e-16
-1.3288e-16
1.39334e-10
2.17356e-15
1.00155e-14
1.12166e-10
-1.07698e-15
-5.9258e-15
8.96523e-11
1.02725e-15
3.38097e-15
7.12517e-11
-5.57841e-16
-1.17885e-15
5.6372e-11
3.04464e-16
-1.28919e-16
1.56193e-10
3.41362e-15
2.75254e-14
1.26848e-10
-1.91587e-15
-2.27215e-14
1.02114e-10
1.55538e-15
1.60236e-14
8.16179e-11
-7.97308e-16
-1.0123e-14
6.48659e-11
3.55236e-16
2.2518e-15
5.13199e-11
3.03136e-16
-7.4443e-17
1.72787e-10
2.28182e-15
1.56762e-14
1.41858e-10
-1.02091e-15
-1.14775e-14
1.15204e-10
1.10264e-15
8.13808e-15
9.27414e-11
-4.45809e-16
-5.00621e-15
7.41263e-11
3.06391e-16
1.44451e-15
5.89121e-11
-2.50252e-16
-5.6266e-16
4.66094e-11
2.80782e-16
-6.81144e-17
1.88216e-10
3.36714e-15
2.32842e-14
1.5658e-10
-1.97915e-15
-2.14852e-14
1.28551e-10
1.77343e-15
1.82576e-14
1.04399e-10
-8.71614e-16
-1.50622e-14
8.40418e-11
4.56652e-16
5.69657e-15
6.71731e-11
-3.04137e-16
-3.74959e-15
5.3386e-11
8.79393e-17
4.97079e-16
4.22373e-11
2.37625e-16
-3.38134e-17
2.01397e-10
1.90027e-15
1.71132e-14
1.70224e-10
-6.59441e-16
-1.46505e-14
1.4161e-10
7.61216e-16
1.21692e-14
1.16261e-10
-7.16047e-17
-9.1064e-15
9.44172e-11
1.95901e-16
3.46987e-15
7.60071e-11
-1.01724e-16
-2.37421e-15
6.0751e-11
5.52554e-17
3.58103e-16
4.8282e-11
9.13288e-18
-1.90234e-16
3.81992e-11
1.68405e-16
-2.38198e-17
2.11122e-10
1.90361e-15
1.66112e-14
1.81816e-10
-1.02653e-15
-1.58409e-14
1.53671e-10
1.04051e-15
1.4808e-14
1.27841e-10
-4.39571e-16
-1.33058e-14
1.04956e-10
3.04617e-16
6.07913e-15
8.52369e-11
-1.64514e-16
-5.23256e-15
6.86166e-11
6.28476e-17
1.14695e-15
5.4844e-11
6.84555e-18
-8.90073e-16
4.35874e-11
7.42903e-17
6.36341e-17
3.4485e-11
8.25375e-17
-8.35262e-18
2.16209e-10
8.04983e-16
1.3532e-14
1.90287e-10
-1.89824e-16
-1.2771e-14
1.63871e-10
1.11616e-16
1.18364e-14
1.38505e-10
3.26922e-16
-1.00645e-14
1.15223e-10
-1.03304e-16
4.5015e-15
9.45979e-11
1.8534e-16
-3.65328e-15
7.68242e-11
-3.01185e-17
7.45025e-16
6.18444e-11
6.84613e-17
-6.74471e-16
4.94311e-11
3.72955e-17
4.53463e-17
3.92854e-11
7.37244e-17
-4.01395e-17
3.10814e-11
1.09051e-16
-1.33161e-16
8.61576e-11
1.65454e-16
-2.79013e-16
1.00737e-10
1.38603e-15
1.45566e-15
7.97008e-11
2.30909e-16
-2.55916e-16
1.16814e-10
2.06095e-15
1.75608e-14
9.28385e-11
-1.0153e-15
-8.45225e-15
7.34509e-11
2.83182e-16
-2.46575e-16
1.3422e-10
2.0595e-15
6.89935e-15
1.0728e-10
-1.01345e-15
-3.66969e-15
8.52612e-11
9.23149e-16
1.388e-15
6.74562e-11
3.29199e-16
-2.20045e-16
1.52643e-10
3.27988e-15
2.95837e-14
1.22881e-10
-1.75367e-15
-2.29546e-14
9.82159e-11
1.36459e-15
1.27364e-14
7.80576e-11
-7.17955e-16
-6.1421e-15
6.17567e-11
3.56551e-16
-1.50408e-16
1.71569e-10
2.59232e-15
1.35474e-14
1.39335e-10
-1.25956e-15
-9.0653e-15
1.12166e-10
1.22309e-15
5.77926e-15
8.96526e-11
-6.25968e-16
-3.1739e-15
7.12514e-11
3.45132e-16
6.02777e-16
5.6372e-11
3.70367e-16
-1.43039e-16
1.90249e-10
4.22616e-15
2.98292e-14
1.56194e-10
-2.46395e-15
-2.67292e-14
1.26847e-10
2.00788e-15
2.03359e-14
1.02114e-10
-1.06611e-15
-1.59524e-14
8.16176e-11
4.80975e-16
4.69795e-15
6.48659e-11
-3.58642e-16
-2.34177e-15
5.13199e-11
3.63011e-16
-7.48203e-17
2.07699e-10
2.84629e-15
1.83376e-14
1.72788e-10
-1.26047e-15
-1.45174e-14
1.41857e-10
1.31496e-15
1.09264e-14
1.15205e-10
-5.06011e-16
-7.58536e-15
9.2741e-11
3.59127e-16
2.45933e-15
7.41263e-11
-2.83803e-16
-1.5168e-15
5.8912e-11
9.68813e-17
1.35384e-16
4.66093e-11
3.29041e-16
-6.28576e-17
2.22687e-10
3.93681e-15
2.31276e-14
1.88218e-10
-2.37065e-15
-2.21042e-14
1.56579e-10
2.18219e-15
1.97303e-14
1.28551e-10
-1.1338e-15
-1.7594e-14
1.04398e-10
5.9148e-16
7.18281e-15
8.40418e-11
-4.05808e-16
-5.8713e-15
6.7173e-11
1.18847e-16
1.01354e-15
5.33859e-11
-1.21743e-17
-5.81806e-16
4.22373e-11
2.72589e-16
-2.78444e-17
2.33861e-10
2.50605e-15
1.75704e-14
2.01399e-10
-1.00469e-15
-1.58779e-14
1.70222e-10
1.02328e-15
1.39014e-14
1.41611e-10
-1.37377e-16
-1.12266e-14
1.16261e-10
2.34413e-16
4.57821e-15
9.44173e-11
-1.15115e-16
-3.51269e-15
7.6007e-11
6.35724e-17
6.03843e-16
6.0751e-11
1.93617e-17
-5.04649e-16
4.8282e-11
1.16595e-16
1.96657e-17
3.81992e-11
1.88997e-16
-1.3037e-17
2.39884e-10
2.26778e-15
1.57939e-14
2.11124e-10
-1.23693e-15
-1.54446e-14
1.81815e-10
1.24419e-15
1.49028e-14
1.53672e-10
-5.47901e-16
-1.38218e-14
1.27841e-10
3.78916e-16
6.59548e-15
1.04957e-10
-2.23288e-16
-6.10584e-15
8.52366e-11
8.25704e-17
1.42617e-15
6.86165e-11
3.18552e-18
-1.38631e-15
5.48439e-11
9.52739e-17
1.23502e-16
4.35873e-11
1.38383e-16
-9.49068e-17
3.44849e-11
9.00583e-17
3.62791e-18
2.3969e-10
1.12698e-15
1.26645e-14
2.16211e-10
-4.64584e-16
-1.24954e-14
1.90285e-10
3.58375e-16
1.21129e-14
1.63872e-10
1.65151e-16
-1.08972e-14
1.38504e-10
-4.55183e-17
5.10389e-15
1.15224e-10
1.6345e-16
-4.4768e-15
9.45976e-11
-2.81833e-17
9.73992e-16
7.68241e-11
7.97436e-17
-9.9066e-16
6.18443e-11
4.71525e-17
7.26985e-17
4.9431e-11
9.37823e-17
-1.04531e-16
3.92853e-11
1.24868e-16
-3.34044e-19
3.10812e-11
7.81114e-17
-2.03007e-16
9.27609e-11
1.44723e-16
-2.95445e-16
1.08899e-10
1.45041e-15
9.78673e-15
8.6158e-11
2.14488e-16
-4.44494e-16
1.26753e-10
1.63044e-15
3.87218e-15
1.00738e-10
-8.42895e-16
-1.44336e-15
7.97007e-11
2.96063e-16
-3.51294e-16
1.46148e-10
2.66261e-15
2.7981e-14
1.16814e-10
-1.38638e-15
-1.78836e-14
9.28383e-11
9.90384e-16
7.32729e-15
7.3451e-11
3.56129e-16
-3.09771e-16
1.6673e-10
2.44873e-15
1.044e-14
1.34221e-10
-1.18529e-15
-6.32763e-15
1.0728e-10
1.07848e-15
3.60715e-15
8.52614e-11
-6.28496e-16
-1.28168e-15
6.74561e-11
4.07597e-16
-2.5477e-16
1.87958e-10
4.16379e-15
3.51764e-14
1.52644e-10
-2.29371e-15
-2.92134e-14
1.2288e-10
1.78189e-15
2.01963e-14
9.82162e-11
-9.89906e-16
-1.29306e-14
7.80574e-11
4.18262e-16
2.83331e-15
6.17566e-11
4.34549e-16
-1.67647e-16
2.08977e-10
3.13619e-15
1.72899e-14
1.71571e-10
-1.47123e-15
-1.23829e-14
1.39334e-10
1.45068e-15
8.73724e-15
1.12166e-10
-7.20007e-16
-5.45736e-15
8.96523e-11
3.98913e-16
1.5749e-15
7.12514e-11
-3.51489e-16
-6.03036e-16
5.63719e-11
4.42377e-16
-1.43927e-16
2.28689e-10
5.10818e-15
3.08701e-14
1.9025e-10
-3.0698e-15
-2.88059e-14
1.56193e-10
2.55974e-15
2.4005e-14
1.26848e-10
-1.40442e-15
-2.01755e-14
1.02114e-10
6.31701e-16
7.39718e-15
8.16177e-11
-4.86779e-16
-4.91296e-15
6.48658e-11
1.27628e-16
6.29236e-16
5.13198e-11
4.26227e-16
-7.32359e-17
2.45737e-10
3.59783e-15
2.03372e-14
2.077e-10
-1.61354e-15
-1.7038e-14
1.72787e-10
1.61547e-15
1.37474e-14
1.41858e-10
-5.81887e-16
-1.02414e-14
1.15204e-10
4.22779e-16
3.71202e-15
9.27411e-11
-3.30205e-16
-2.58936e-15
7.41261e-11
1.12468e-16
3.55967e-16
5.89119e-11
-2.62187e-18
-2.09408e-16
4.66093e-11
3.7756e-16
-5.21079e-17
2.58582e-10
4.53141e-15
2.2268e-14
2.22689e-10
-2.7469e-15
-2.18204e-14
1.88216e-10
2.61314e-15
2.03923e-14
1.5658e-10
-1.40778e-15
-1.89151e-14
1.28551e-10
7.53573e-16
8.41739e-15
1.04398e-10
-5.30316e-16
-7.40498e-15
8.40416e-11
1.55372e-16
1.57738e-15
6.7173e-11
-2.36391e-17
-1.22771e-15
5.33858e-11
1.68059e-16
8.71709e-17
4.22372e-11
3.05412e-16
-1.71981e-17
2.65721e-10
3.19506e-15
1.7196e-14
2.33863e-10
-1.45658e-15
-1.62921e-14
2.01397e-10
1.40256e-15
1.50296e-14
1.70223e-10
-2.79715e-16
-1.28704e-14
1.4161e-10
3.04595e-16
5.62162e-15
1.16261e-10
-1.37724e-16
-4.63986e-15
9.44171e-11
7.4803e-17
8.97994e-16
7.60069e-11
3.02904e-17
-8.50069e-16
6.07509e-11
1.46043e-16
4.91956e-17
4.82819e-11
2.17044e-16
-4.74624e-17
3.81991e-11
2.06831e-16
1.07763e-18
2.65937e-10
2.67225e-15
1.45085e-14
2.39887e-10
-1.49667e-15
-1.46328e-14
2.11122e-10
1.48445e-15
1.45557e-14
1.81816e-10
-6.65075e-16
-1.38762e-14
1.53671e-10
4.59504e-16
6.86926e-15
1.27841e-10
-2.84919e-16
-6.63009e-15
1.04956e-10
1.06533e-16
1.65372e-15
8.52366e-11
-9.61441e-19
-1.75629e-15
6.86164e-11
1.2103e-16
1.88167e-16
5.48438e-11
1.73723e-16
-2.04016e-16
4.35872e-11
2.63377e-16
1.33996e-18
3.44847e-11
9.55458e-17
1.83813e-17
2.58546e-10
1.42122e-15
1.1292e-14
2.39693e-10
-7.38822e-16
-1.16606e-14
2.16209e-10
6.29215e-16
1.18289e-14
1.90287e-10
-3.66264e-17
-1.11859e-14
1.63871e-10
4.65656e-17
5.49806e-15
1.38505e-10
1.13365e-16
-5.09286e-15
1.15223e-10
-1.73066e-17
1.19168e-15
9.45976e-11
8.84856e-17
-1.28753e-15
7.6824e-11
6.00964e-17
1.09002e-16
6.18442e-11
1.17954e-16
-1.70896e-16
4.94309e-11
1.57811e-16
-1.89672e-18
3.92852e-11
2.16032e-16
-8.716e-18
3.1081e-11
5.19401e-17
-1.71991e-16
9.94343e-11
1.04452e-16
-4.46543e-16
1.17245e-10
1.20972e-15
1.42209e-15
9.27613e-11
1.90411e-16
-4.77335e-16
1.37022e-10
1.92527e-15
2.08779e-14
1.089e-10
-9.10225e-16
-9.97957e-15
8.61578e-11
2.74854e-16
-5.94942e-16
1.58584e-10
1.93631e-15
6.66881e-15
1.26754e-10
-9.55176e-16
-3.78741e-15
1.00738e-10
8.1707e-16
1.40849e-15
7.97008e-11
3.73769e-16
-4.49192e-16
1.81548e-10
3.42337e-15
3.59252e-14
1.46149e-10
-1.83512e-15
-2.84713e-14
1.16814e-10
1.33659e-15
1.55274e-14
9.28385e-11
-7.24725e-16
-7.5111e-15
7.34508e-11
4.40736e-16
-3.5451e-16
2.05304e-10
2.89651e-15
1.4185e-14
1.66732e-10
-1.37138e-15
-9.67319e-15
1.3422e-10
1.27743e-15
6.15828e-15
1.0728e-10
-7.03764e-16
-3.40191e-15
8.52612e-11
3.84408e-16
6.78357e-16
6.7456e-11
4.95493e-16
-2.868e-16
2.28939e-10
5.17522e-15
3.82753e-14
1.87959e-10
-2.96274e-15
-3.4658e-14
1.52644e-10
2.30838e-15
2.57879e-14
1.22881e-10
-1.3167e-15
-2.05043e-14
9.82159e-11
5.64015e-16
5.96156e-15
7.80574e-11
-4.16281e-16
-2.92365e-15
6.17566e-11
5.2018e-16
-1.71111e-16
2.51202e-10
3.83905e-15
2.05374e-14
2.08979e-10
-1.77192e-15
-1.59393e-14
1.7157e-10
1.71697e-15
1.18223e-14
1.39335e-10
-8.2401e-16
-8.31001e-15
1.12166e-10
4.69399e-16
2.68271e-15
8.96523e-11
-4.05507e-16
-1.61371e-15
7.12513e-11
1.27852e-16
1.39535e-16
5.63718e-11
5.18329e-16
-1.39364e-16
2.70572e-10
6.00374e-15
3.05572e-14
2.28691e-10
-3.71091e-15
-2.96774e-14
1.90249e-10
3.17523e-15
2.59956e-14
1.56194e-10
-1.82078e-15
-2.37502e-14
1.26847e-10
8.20037e-16
9.3869e-15
1.02114e-10
-6.40125e-16
-7.74922e-15
8.16175e-11
1.70307e-16
1.29559e-15
6.48657e-11
-1.45719e-17
-7.54516e-16
5.13197e-11
4.89453e-16
-6.44121e-17
2.85348e-10
4.50952e-15
2.1279e-14
2.4574e-10
-2.13073e-15
-1.89273e-14
2.07699e-10
2.02583e-15
1.60636e-14
1.72788e-10
-7.25135e-16
-1.29393e-14
1.41857e-10
5.00233e-16
4.99307e-15
1.15204e-10
-3.86368e-16
-3.89813e-15
9.27408e-11
1.32896e-16
6.06658e-16
7.41261e-11
7.32005e-18
-5.59092e-16
5.89118e-11
2.18852e-16
1.83137e-17
4.66092e-11
4.23604e-16
-3.64721e-17
2.9381e-10
5.15428e-15
2.08428e-14
2.58585e-10
-3.13396e-15
-2.0899e-14
2.22687e-10
3.03928e-15
2.02272e-14
1.88218e-10
-1.68811e-15
-1.94725e-14
1.56579e-10
9.26569e-16
9.0949e-15
1.28551e-10
-6.81231e-16
-8.67604e-15
1.04398e-10
1.99718e-16
1.97488e-15
8.40416e-11
-3.62176e-17
-1.92772e-15
6.71729e-11
2.14208e-16
1.72845e-16
5.33858e-11
3.0036e-16
-1.27251e-16
4.22371e-11
3.33484e-16
-2.45929e-18
2.9458e-10
3.91409e-15
1.60666e-14
2.65724e-10
-1.98777e-15
-1.59179e-14
2.33861e-10
1.87774e-15
1.53897e-14
2.01399e-10
-5.32363e-16
-1.39568e-14
1.70222e-10
4.1327e-16
6.42134e-15
1.4161e-10
-1.92063e-16
-5.70297e-15
1.16261e-10
8.96707e-17
1.19193e-15
9.4417e-11
4.21814e-17
-1.25077e-15
7.60068e-11
1.82794e-16
8.17603e-17
6.07508e-11
2.76411e-16
-1.27467e-16
4.82818e-11
4.15673e-16
-1.46543e-18
3.81989e-11
2.20035e-16
1.81427e-17
2.86858e-10
3.09209e-15
1.27975e-14
2.6594e-10
-1.79816e-15
-1.33859e-14
2.39884e-10
1.76771e-15
1.3794e-14
2.11124e-10
-8.16537e-16
-1.35409e-14
1.81815e-10
5.44675e-16
6.90601e-15
1.53672e-10
-3.5393e-16
-6.91325e-15
1.2784e-10
1.31619e-16
1.78267e-15
1.04956e-10
-6.94795e-18
-2.06371e-15
8.52365e-11
1.52421e-16
2.30746e-16
6.86163e-11
2.17699e-16
-3.20033e-16
5.48437e-11
3.32899e-16
7.81641e-19
4.3587e-11
4.52166e-16
-1.39831e-17
3.44845e-11
9.86762e-17
3.54447e-17
2.7084e-10
1.66312e-15
9.51184e-15
2.58549e-10
-9.88351e-16
-1.03506e-14
2.39691e-10
8.96876e-16
1.10153e-14
2.16211e-10
-2.62151e-16
-1.09549e-14
1.90285e-10
1.57139e-16
5.61562e-15
1.63871e-10
2.7244e-17
-5.50783e-15
1.38504e-10
1.77783e-18
1.35206e-15
1.15223e-10
8.88224e-17
-1.57393e-15
9.45974e-11
7.64304e-17
1.43572e-16
7.68239e-11
1.4642e-16
-2.50577e-16
6.18441e-11
1.98548e-16
-4.5875e-18
4.94306e-11
2.73048e-16
-2.41323e-17
3.92849e-11
3.6115e-16
5.90248e-18
3.10806e-11
3.38931e-17
-1.84419e-16
1.0609e-10
7.33055e-17
-3.8349e-16
1.2568e-10
1.21577e-15
1.12283e-14
9.94347e-11
1.39033e-16
-7.15829e-16
1.47524e-10
1.40072e-15
3.76771e-15
1.17246e-10
-6.93547e-16
-1.50275e-15
9.27612e-11
2.47336e-16
-6.56336e-16
1.71432e-10
2.49896e-15
3.3357e-14
1.37023e-10
-1.26004e-15
-2.12188e-14
1.08899e-10
8.73377e-16
8.82012e-15
8.61579e-11
3.46797e-16
-7.38708e-16
1.96995e-10
2.27529e-15
1.01645e-14
1.58585e-10
-1.10216e-15
-6.52473e-15
1.26753e-10
9.35606e-16
3.64428e-15
1.00738e-10
-5.34512e-16
-1.30016e-15
7.97006e-11
4.63234e-16
-5.26976e-16
2.23549e-10
4.36515e-15
4.29736e-14
1.81549e-10
-2.41268e-15
-3.64755e-14
1.46148e-10
1.75547e-15
2.47194e-14
1.16814e-10
-1.00588e-15
-1.59116e-14
9.28382e-11
4.3104e-16
3.45184e-15
7.34508e-11
5.36125e-16
-3.91517e-16
2.50067e-10
3.45936e-15
1.82595e-14
2.05305e-10
-1.57578e-15
-1.3273e-14
1.66731e-10
1.49944e-15
9.28774e-15
1.34221e-10
-8.04763e-16
-5.85272e-15
1.0728e-10
4.43404e-16
1.73652e-15
8.52611e-11
-3.55817e-16
-6.33106e-16
6.74559e-11
5.90941e-16
-2.97808e-16
2.75197e-10
6.28181e-15
3.97937e-14
2.28941e-10
-3.71999e-15
-3.75632e-14
1.87958e-10
2.95723e-15
3.0668e-14
1.52644e-10
-1.73404e-15
-2.61201e-14
1.2288e-10
7.39522e-16
9.44481e-15
9.82159e-11
-5.63886e-16
-6.17218e-15
7.80573e-11
1.53389e-16
7.79734e-16
6.17565e-11
6.10526e-16
-1.70271e-16
2.97208e-10
4.75821e-15
2.32026e-14
2.51204e-10
-2.19743e-15
-1.90783e-14
2.08978e-10
2.07359e-15
1.50786e-14
1.71571e-10
-9.4252e-16
-1.13077e-14
1.39334e-10
5.50312e-16
4.05745e-15
1.12166e-10
-4.76291e-16
-2.76343e-15
8.96521e-11
1.50172e-16
3.62126e-16
7.12512e-11
9.975e-18
-2.34874e-16
5.63718e-11
5.9464e-16
-1.23262e-16
3.14186e-10
6.90288e-15
2.92636e-14
2.70575e-10
-4.33474e-15
-2.92133e-14
2.28689e-10
3.83436e-15
2.68978e-14
1.9025e-10
-2.27753e-15
-2.56168e-14
1.56193e-10
1.05061e-15
1.10773e-14
1.26847e-10
-8.31551e-16
-9.83228e-15
1.02113e-10
2.21455e-16
2.03151e-15
8.16174e-11
-2.78021e-17
-1.60419e-15
6.48656e-11
2.79774e-16
1.10119e-16
5.13196e-11
5.48828e-16
-4.97258e-17
3.24223e-10
5.53888e-15
2.11783e-14
2.85351e-10
-2.79318e-15
-1.98215e-14
2.45738e-10
2.58649e-15
1.77796e-14
2.077e-10
-9.6064e-16
-1.51711e-14
1.72787e-10
6.15187e-16
6.29664e-15
1.41857e-10
-4.5511e-16
-5.23007e-15
1.15204e-10
1.57372e-16
9.27849e-16
9.27408e-11
1.82818e-17
-9.46428e-16
7.4126e-11
2.74883e-16
4.63066e-17
5.89118e-11
3.99885e-16
-5.29712e-17
4.66091e-11
4.63369e-16
-1.63547e-17
3.2572e-10
5.81217e-15
1.8915e-14
2.93813e-10
-3.54619e-15
-1.94658e-14
2.58582e-10
3.47814e-15
1.94414e-14
2.22689e-10
-1.95191e-15
-1.9236e-14
1.88216e-10
1.10656e-15
9.39738e-15
1.5658e-10
-8.42502e-16
-9.37075e-15
1.28551e-10
2.52857e-16
2.30006e-15
1.04398e-10
-5.16399e-17
-2.45576e-15
8.40415e-11
2.71004e-16
2.65916e-16
6.71727e-11
3.78526e-16
-2.76182e-16
5.33856e-11
5.8474e-16
2.103e-18
4.22369e-11
3.5451e-16
1.65554e-17
3.17754e-10
4.6e-15
1.42979e-14
2.94583e-10
-2.55461e-15
-1.48337e-14
2.65721e-10
2.42062e-15
1.50093e-14
2.33863e-10
-8.78809e-16
-1.43294e-14
2.01397e-10
5.73468e-16
6.9395e-15
1.70223e-10
-2.86443e-16
-6.51955e-15
1.4161e-10
1.14341e-16
1.47125e-15
1.16261e-10
5.4531e-17
-1.6405e-15
9.44169e-11
2.27984e-16
1.25001e-16
7.60067e-11
3.49596e-16
-2.13382e-16
6.07506e-11
5.25027e-16
-4.56162e-18
4.82816e-11
7.14289e-16
-9.66811e-18
3.81986e-11
2.27661e-16
3.74504e-17
3.00498e-10
3.47678e-15
1.07314e-14
2.8686e-10
-2.12738e-15
-1.17492e-14
2.65937e-10
2.08529e-15
1.26118e-14
2.39886e-10
-1.01394e-15
-1.28409e-14
2.11122e-10
6.44404e-16
6.73546e-15
1.81816e-10
-4.29942e-16
-6.96284e-15
1.53671e-10
1.58543e-16
1.84521e-15
1.2784e-10
-1.17964e-17
-2.26358e-15
1.04956e-10
1.90308e-16
2.63973e-16
8.52363e-11
2.71591e-16
-4.12715e-16
6.86162e-11
4.18829e-16
6.99899e-20
5.48434e-11
5.71334e-16
-3.44947e-17
4.35867e-11
7.56125e-16
-7.64948e-18
3.44841e-11
9.88736e-17
5.35055e-17
2.75112e-10
1.85389e-15
7.49168e-15
2.70843e-10
-1.1952e-15
-8.6552e-15
2.58546e-10
1.14027e-15
9.75273e-15
2.39693e-10
-4.89433e-16
-1.02321e-14
2.16209e-10
2.77704e-16
5.47093e-15
1.90286e-10
-7.91462e-17
-5.64675e-15
1.63871e-10
3.07682e-17
1.45607e-15
1.38504e-10
8.12691e-17
-1.78633e-15
1.15223e-10
9.72824e-17
1.77707e-16
9.45973e-11
1.79784e-16
-3.23306e-16
7.68237e-11
2.48382e-16
-4.95018e-18
6.18438e-11
3.43465e-16
-3.85834e-17
4.94303e-11
4.56757e-16
8.52655e-18
3.92844e-11
5.6814e-16
-8.6199e-17
3.10802e-11
4.04339e-17
-1.42827e-16
1.12627e-10
4.9913e-17
-4.02281e-16
1.34092e-10
9.39227e-16
1.35467e-15
1.0609e-10
1.01865e-16
-6.207e-16
1.58137e-10
1.63281e-15
2.40118e-14
1.25681e-10
-7.26678e-16
-1.15211e-14
9.94346e-11
1.82155e-16
-9.61517e-16
1.84571e-10
1.6394e-15
6.49595e-15
1.47525e-10
-7.60143e-16
-3.87644e-15
1.17246e-10
6.71765e-16
1.47168e-15
9.27613e-11
3.1559e-16
-8.33582e-16
2.12955e-10
3.23313e-15
4.29946e-14
1.71433e-10
-1.68343e-15
-3.38827e-14
1.37023e-10
1.19623e-15
1.87824e-14
1.08899e-10
-5.40422e-16
-8.83945e-15
8.61578e-11
4.30188e-16
-8.37725e-16
2.4257e-10
2.65404e-15
1.39197e-14
1.96996e-10
-1.24826e-15
-9.96601e-15
1.58584e-10
1.08876e-15
6.22915e-15
1.26754e-10
-5.77062e-16
-3.41475e-15
1.00738e-10
3.64741e-16
7.01386e-16
7.97006e-11
5.62862e-16
-5.92776e-16
2.7229e-10
5.45635e-15
4.70117e-14
2.23551e-10
-3.135e-15
-4.35817e-14
1.81548e-10
2.29185e-15
3.17416e-14
1.46149e-10
-1.34403e-15
-2.53388e-14
1.16814e-10
5.83228e-16
7.30859e-15
9.28382e-11
-3.78644e-16
-3.54258e-15
7.34507e-11
6.40344e-16
-4.0208e-16
3.00594e-10
4.17608e-15
2.19619e-14
2.50069e-10
-1.8539e-15
-1.72381e-14
2.05304e-10
1.74935e-15
1.26037e-14
1.66732e-10
-9.06606e-16
-8.90757e-15
1.3422e-10
5.19374e-16
2.94958e-15
1.0728e-10
-4.06362e-16
-1.67386e-15
8.5261e-11
1.50754e-16
1.54804e-16
6.74559e-11
6.90818e-16
-2.97542e-16
3.25597e-10
7.40622e-15
3.94028e-14
2.75199e-10
-4.53331e-15
-3.89408e-14
2.28939e-10
3.69462e-15
3.33607e-14
1.87959e-10
-2.25275e-15
-3.10082e-14
1.52644e-10
9.61902e-16
1.2065e-14
1.2288e-10
-7.41453e-16
-9.79067e-15
9.82157e-11
2.04155e-16
1.62087e-15
7.80572e-11
1.34465e-17
-9.42658e-16
6.17564e-11
7.00942e-16
-1.55678e-16
3.45115e-10
5.87076e-15
2.47484e-14
2.97211e-10
-2.81337e-15
-2.16799e-14
2.51202e-10
2.54973e-15
1.7913e-14
2.08979e-10
-1.12788e-15
-1.44987e-14
1.71569e-10
6.44796e-16
5.49037e-15
1.39334e-10
-5.56957e-16
-4.1863e-15
1.12166e-10
1.7881e-16
6.18501e-16
8.9652e-11
2.5686e-17
-6.19824e-16
7.12511e-11
3.40087e-16
1.53522e-17
5.63717e-11
6.66808e-16
-9.96675e-17
3.56989e-10
7.78946e-15
2.72338e-14
3.14189e-10
-4.94301e-15
-2.78409e-14
2.70572e-10
4.48924e-15
2.6597e-14
2.28691e-10
-2.75611e-15
-2.64106e-14
1.90249e-10
1.30691e-15
1.19998e-14
1.56194e-10
-1.06554e-15
-1.15964e-14
1.26847e-10
2.85008e-16
2.56172e-15
1.02113e-10
-4.23787e-17
-2.5361e-15
8.16173e-11
3.55681e-16
2.22252e-16
6.48655e-11
5.04735e-16
-1.63089e-16
5.13195e-11
5.9961e-16
-2.85049e-17
3.59435e-10
6.60489e-15
2.00377e-14
3.24226e-10
-3.57159e-15
-1.97181e-14
2.85348e-10
3.27545e-15
1.85649e-14
2.4574e-10
-1.33545e-15
-1.68406e-14
2.07699e-10
7.78284e-16
7.36908e-15
1.72787e-10
-5.6102e-16
-6.57383e-15
1.41857e-10
1.86884e-16
1.26088e-15
1.15204e-10
3.19736e-17
-1.4121e-15
9.27406e-11
3.44452e-16
7.75406e-17
7.41258e-11
5.08491e-16
-1.42194e-16
5.89116e-11
7.70331e-16
-1.07122e-18
4.66089e-11
4.93417e-16
7.92107e-18
3.51343e-10
6.47328e-15
1.65569e-14
3.25723e-10
-4.00328e-15
-1.75816e-14
2.9381e-10
3.9365e-15
1.81471e-14
2.58585e-10
-2.2258e-15
-1.84373e-14
2.22687e-10
1.28109e-15
9.31835e-15
1.88217e-10
-1.01113e-15
-9.67755e-15
1.56579e-10
3.09941e-16
2.46789e-15
1.28551e-10
-7.05607e-17
-2.89535e-15
1.04398e-10
3.40511e-16
3.29e-16
8.40413e-11
4.75691e-16
-4.36038e-16
6.71726e-11
7.38939e-16
2.72748e-18
5.33854e-11
1.00276e-15
-1.78531e-17
4.22366e-11
3.66633e-16
3.85616e-17
3.32863e-10
5.19911e-15
1.20558e-14
3.17757e-10
-3.10639e-15
-1.31505e-14
2.9458e-10
2.98775e-15
1.39571e-14
2.65723e-10
-1.29845e-15
-1.40092e-14
2.33861e-10
7.75627e-16
7.10023e-15
2.01398e-10
-4.36068e-16
-7.05449e-15
1.70222e-10
1.50817e-16
1.68543e-15
1.4161e-10
6.06882e-17
-2.00881e-15
1.1626e-10
2.82805e-16
1.68636e-16
9.44167e-11
4.38958e-16
-3.13539e-16
7.60065e-11
6.60234e-16
-8.73433e-18
6.07504e-11
9.0317e-16
-2.79984e-17
4.82812e-11
1.19377e-15
8.95459e-18
3.81982e-11
2.28885e-16
5.81974e-17
3.05238e-10
3.78898e-15
8.42994e-15
3.00501e-10
-2.44292e-15
-9.78706e-15
2.86858e-10
2.41804e-15
1.10494e-14
2.6594e-10
-1.25289e-15
-1.17573e-14
2.39884e-10
7.62273e-16
6.37077e-15
2.11123e-10
-5.24183e-16
-6.80695e-15
1.81815e-10
1.86554e-16
1.8442e-15
1.53671e-10
-1.6893e-17
-2.37667e-15
1.2784e-10
2.3454e-16
2.81801e-16
1.04956e-10
3.36406e-16
-4.90002e-16
8.52361e-11
5.23929e-16
2.63483e-20
6.86159e-11
7.18733e-16
-5.52616e-17
5.48431e-11
9.55479e-16
-1.43051e-17
4.35862e-11
1.20116e-15
-7.97309e-17
3.44835e-11
9.64916e-17
7.14433e-17
2.7084e-10
1.96635e-15
5.36209e-15
2.75115e-10
-1.36917e-15