/*--------------------------------*- C++ -*----------------------------------*\
  =========                 |
  \\      /  F ield         | OpenFOAM: The Open Source CFD Toolbox
   \\    /   O peration     | Website:  https://openfoam.org
    \\  /    A nd           | Version:  7
     \\/     M anipulation  |
\*---------------------------------------------------------------------------*/
FoamFile
{
    version     2.0;
    format      ascii;
    class       volVectorField;
    location    "200";
    object      U;
}
// * * * * * * * * * * * * * * * * * * * * * * * * * * * * * * * * * * * * * //

dimensions      [0 1 -1 0 0 0 0];

internalField   nonuniform List<vector> 
43305
(
(0.625001 1.88298e-09 -1.48064e-10)
(0.625001 5.50372e-09 -1.85203e-10)
(0.625001 1.92246e-09 -3.60285e-10)
(0.625007 -1.29887e-07 1.96912e-08)
(0.625001 1.07194e-08 -1.63133e-10)
(0.625001 5.65801e-09 -4.64682e-10)
(0.625007 5.32591e-08 5.31727e-08)
(0.625001 1.95716e-09 -4.30329e-10)
(0.625007 -1.23298e-07 6.92032e-08)
(0.625006 1.4355e-07 -1.90597e-08)
(0.625001 1.55294e-08 -2.31371e-10)
(0.625001 1.09705e-08 -4.00389e-10)
(0.625007 8.6165e-08 1.85982e-08)
(0.625001 5.81041e-09 -5.86924e-10)
(0.625007 5.32752e-08 1.64683e-07)
(0.625006 -2.36281e-08 -5.38809e-08)
(0.625001 1.97936e-09 -5.37345e-10)
(0.625007 -1.12584e-07 1.35928e-07)
(0.625006 1.36543e-07 -6.65527e-08)
(0.625006 -1.25374e-07 1.96234e-08)
(0.625001 2.08146e-08 -2.06171e-10)
(0.625001 1.5902e-08 -6.17338e-10)
(0.625007 2.25099e-07 5.87584e-08)
(0.625001 1.12154e-08 -4.76815e-10)
(0.625007 8.60131e-08 6.68415e-08)
(0.625006 -2.81793e-08 -1.79553e-08)
(0.625001 5.94105e-09 -7.45757e-10)
(0.625007 5.37807e-08 2.80231e-07)
(0.625006 -2.42098e-08 -1.65754e-07)
(0.625006 4.33439e-08 5.16681e-08)
(0.625001 1.98695e-09 -6.74619e-10)
(0.625007 -9.56877e-08 2.10292e-07)
(0.625006 1.25265e-07 -1.30056e-07)
(0.625006 -1.19076e-07 6.83141e-08)
(0.625006 1.46784e-07 -1.87249e-08)
(0.625001 2.58854e-08 -2.89678e-10)
(0.625001 2.13072e-08 -5.496e-10)
(0.625007 2.54535e-07 1.59173e-08)
(0.625001 1.62669e-08 -8.68287e-10)
(0.625007 2.24066e-07 1.83292e-07)
(0.625006 -1.48998e-07 -6.01234e-08)
(0.625001 1.14166e-08 -5.87491e-10)
(0.625007 8.63255e-08 1.35359e-07)
(0.625006 -2.91037e-08 -6.41446e-08)
(0.625006 6.66336e-08 1.85503e-08)
(0.625001 6.0349e-09 -9.07283e-10)
(0.625007 5.53379e-08 3.84336e-07)
(0.625006 -2.52964e-08 -2.79728e-07)
(0.625006 4.35732e-08 1.59657e-07)
(0.625006 -7.05857e-09 -5.3166e-08)
(0.625001 1.9797e-09 -8.13367e-10)
(0.625007 -7.55251e-08 2.89816e-07)
(0.625006 1.07612e-07 -2.01319e-07)
(0.625006 -1.08834e-07 1.33005e-07)
(0.625006 1.3989e-07 -6.54126e-08)
(0.625004 -6.70052e-08 1.08488e-08)
(0.625001 3.093e-08 -2.95113e-10)
(0.625001 2.65115e-08 -8.23228e-10)
(0.625007 3.64244e-07 6.21208e-08)
(0.625001 2.17933e-08 -7.61611e-10)
(0.625007 2.52866e-07 5.76543e-08)
(0.625006 -1.54729e-07 -1.51693e-08)
(0.625001 1.6569e-08 -1.1501e-09)
(0.625007 2.23146e-07 3.15466e-07)
(0.625006 -1.49346e-07 -1.86475e-07)
(0.625006 1.88734e-07 5.68788e-08)
(0.625001 1.15484e-08 -7.33696e-10)
(0.625007 8.76242e-08 2.12686e-07)
(0.625006 -3.05887e-08 -1.29388e-07)
(0.625006 6.68479e-08 6.5915e-08)
(0.625006 -6.72576e-10 -1.77547e-08)
(0.625001 6.09e-09 -1.05821e-09)
(0.625007 5.75989e-08 4.59452e-07)
(0.625006 -2.73849e-08 -3.8168e-07)
(0.625006 4.42551e-08 2.70937e-07)
(0.625006 -7.72305e-09 -1.63552e-07)
(0.625004 2.32912e-08 2.79985e-08)
(0.625001 1.95773e-09 -8.81865e-10)
(0.625007 -5.26423e-08 3.64908e-07)
(0.625006 8.66105e-08 -2.78162e-07)
(0.625006 -9.26866e-08 2.05044e-07)
(0.625006 1.28764e-07 -1.27896e-07)
(0.625004 -6.35734e-08 3.74772e-08)
(0.625005 8.0246e-08 -1.14106e-08)
(0.625001 3.59288e-08 -3.81077e-10)
(0.625001 3.16848e-08 -8.50023e-10)
(0.625007 3.81539e-07 1.43719e-08)
(0.625001 2.71274e-08 -1.27186e-09)
(0.625007 3.62302e-07 1.94639e-07)
(0.625006 -2.53163e-07 -6.39731e-08)
(0.625001 2.22025e-08 -1.00571e-09)
(0.625007 2.51139e-07 1.18002e-07)
(0.625006 -1.54847e-07 -5.47414e-08)
(0.625006 2.04973e-07 1.58011e-08)
(0.625001 1.67689e-08 -1.41632e-09)
(0.625007 2.22551e-07 4.36305e-07)
(0.625006 -1.49852e-07 -3.18762e-07)
(0.625006 1.88352e-07 1.77006e-07)
(0.625006 -1.09644e-07 -5.95947e-08)
(0.625001 1.16e-08 -8.88362e-10)
(0.625007 9.06094e-08 2.95227e-07)
(0.625006 -3.30839e-08 -2.0358e-07)
(0.625006 6.74827e-08 1.32092e-07)
(0.625006 -1.70763e-09 -6.34545e-08)
(0.625004 3.2385e-08 1.01061e-08)
(0.625001 6.10877e-09 -1.12885e-09)
(0.625007 6.10174e-08 5.13319e-07)
(0.625006 -3.00716e-08 -4.53742e-07)
(0.625006 4.5886e-08 3.71305e-07)
(0.625006 -8.91389e-09 -2.7599e-07)
(0.625004 2.33805e-08 8.63205e-08)
(0.625005 -1.17969e-08 -3.06584e-08)
(0.625001 1.92269e-09 -9.15532e-10)
(0.625007 -3.08621e-08 4.29241e-07)
(0.625006 6.28858e-08 -3.51012e-07)
(0.625006 -7.34178e-08 2.81901e-07)
(0.625006 1.11322e-07 -1.98104e-07)
(0.625004 -5.80442e-08 7.24099e-08)
(0.625005 7.6349e-08 -3.98401e-08)
(0.625003 -2.26854e-08 3.51669e-09)
(0.625001 3.95654e-08 -4.84532e-10)
(0.625001 3.68188e-08 -1.14442e-09)
(0.625007 4.62196e-07 6.42887e-08)
(0.625001 3.24321e-08 -1.3233e-09)
(0.625007 3.78718e-07 5.16613e-08)
(0.625006 -2.47212e-07 -1.32916e-08)
(0.625001 2.76412e-08 -1.7626e-09)
(0.625007 3.60588e-07 3.37639e-07)
(0.625006 -2.53274e-07 -1.99514e-07)
(0.625006 2.93899e-07 5.98102e-08)
(0.625001 2.24816e-08 -1.27289e-09)
(0.625007 2.49703e-07 1.88077e-07)
(0.625006 -1.5498e-07 -1.11867e-07)
(0.625006 2.04184e-07 5.65245e-08)
(0.625006 -1.06955e-07 -1.53539e-08)
(0.625001 1.68534e-08 -1.64965e-09)
(0.625007 2.2212e-07 5.24834e-07)
(0.625006 -1.50559e-07 -4.38872e-07)
(0.625006 1.88052e-07 3.03788e-07)
(0.625006 -1.10203e-07 -1.84902e-07)
(0.625004 9.326e-08 3.06202e-08)
(0.625001 1.1582e-08 -9.85392e-10)
(0.625007 9.60447e-08 3.74522e-07)
(0.625006 -3.72036e-08 -2.83458e-07)
(0.625006 6.89726e-08 2.06746e-07)
(0.625006 -3.34958e-09 -1.28044e-07)
(0.625004 3.24839e-08 3.56314e-08)
(0.625005 -1.56436e-08 -1.09227e-08)
(0.625001 6.10011e-09 -1.15916e-09)
(0.625007 6.5149e-08 5.43406e-07)
(0.625006 -3.37971e-08 -5.04303e-07)
(0.625006 4.81138e-08 4.43838e-07)
(0.625006 -1.11279e-08 -3.76589e-07)
(0.625004 2.36751e-08 1.46095e-07)
(0.625005 -1.20916e-08 -9.47228e-08)
(0.625003 1.16691e-08 9.59814e-09)
(0.625001 1.8746e-09 -8.59502e-10)
(0.625007 -1.1223e-08 4.74313e-07)
(0.625006 4.03621e-08 -4.13158e-07)
(0.625006 -5.15745e-08 3.54259e-07)
(0.625006 9.05461e-08 -2.73924e-07)
(0.625004 -4.93758e-08 1.11276e-07)
(0.625005 7.0084e-08 -7.77969e-08)
(0.625003 -2.1408e-08 1.20484e-08)
(0.625003 3.45019e-08 -5.07411e-09)
(0.625001 4.28456e-08 -5.71804e-10)
(0.625001 4.05964e-08 -1.48448e-09)
(0.625007 4.56104e-07 1.27173e-08)
(0.625001 3.76919e-08 -1.9e-09)
(0.625007 4.59221e-07 2.0214e-07)
(0.625006 -3.14881e-07 -6.68459e-08)
(0.625001 3.3064e-08 -1.83472e-09)
(0.625007 3.75668e-07 1.05228e-07)
(0.625006 -2.46892e-07 -4.78112e-08)
(0.625006 2.92455e-07 1.41074e-08)
(0.625001 2.79859e-08 -2.24143e-09)
(0.625007 3.59518e-07 4.70196e-07)
(0.625006 -2.53638e-07 -3.44201e-07)
(0.625006 2.93177e-07 1.86949e-07)
(0.625006 -1.99686e-07 -6.39154e-08)
(0.625001 2.26122e-08 -1.52033e-09)
(0.625007 2.49105e-07 2.65883e-07)
(0.625006 -1.55278e-07 -1.78928e-07)
(0.625006 2.0331e-07 1.14392e-07)
(0.625006 -1.07304e-07 -5.53685e-08)
(0.625004 9.53322e-08 8.45174e-09)
(0.625001 1.68382e-08 -1.77494e-09)
(0.625007 2.21745e-07 5.86621e-07)
(0.625006 -1.51201e-07 -5.25099e-07)
(0.625006 1.8793e-07 4.19756e-07)
(0.625006 -1.10984e-07 -3.16198e-07)
(0.625004 9.30342e-08 9.5055e-08)
(0.625005 -8.536e-08 -3.43596e-08)
(0.625001 1.15025e-08 -1.05348e-09)
(0.625007 1.0394e-07 4.42544e-07)
(0.625006 -4.37276e-08 -3.60592e-07)
(0.625006 7.19354e-08 2.86335e-07)
(0.625006 -6.06343e-09 -2.01534e-07)
(0.625004 3.27713e-08 7.08809e-08)
(0.625005 -1.60822e-08 -3.89572e-08)
(0.625003 1.53647e-08 3.19409e-09)
(0.625001 6.06653e-09 -1.06879e-09)
(0.625007 7.03817e-08 5.55422e-07)
(0.625006 -3.81433e-08 -5.30932e-07)
(0.625006 5.13559e-08 4.95753e-07)
(0.625006 -1.39818e-08 -4.47762e-07)
(0.625004 2.4424e-08 2.0003e-07)
(0.625005 -1.26992e-08 -1.60739e-07)
(0.625003 1.16522e-08 2.93395e-08)
(0.625003 5.74528e-09 -1.23906e-08)
(0.625001 1.83339e-09 -7.25659e-10)
(0.625007 4.11449e-09 4.98628e-07)
(0.625006 2.00874e-08 -4.56643e-07)
(0.625006 -3.08119e-08 4.15762e-07)
(0.625006 6.70526e-08 -3.45928e-07)
(0.625004 -3.90661e-08 1.52697e-07)
(0.625005 6.02825e-08 -1.20184e-07)
(0.625003 -1.9398e-08 2.31016e-08)
(0.625003 3.29688e-08 -1.77031e-08)
(0.625001 4.60604e-09 6.82917e-10)
(0.625001 4.10884e-08 -9.1391e-10)
(0.625001 4.40111e-08 -1.80267e-09)
(0.625007 4.9698e-07 6.47519e-08)
(0.625001 4.16122e-08 -2.50713e-09)
(0.625007 4.52286e-07 4.53099e-08)
(0.625006 -2.88831e-07 -1.20399e-08)
(0.625001 3.84144e-08 -2.72286e-09)
(0.625007 4.56424e-07 3.52844e-07)
(0.625006 -3.1478e-07 -2.09389e-07)
(0.625006 3.48705e-07 6.18141e-08)
(0.625001 3.34992e-08 -2.35153e-09)
(0.625007 3.72724e-07 1.67961e-07)
(0.625006 -2.46428e-07 -9.76881e-08)
(0.625006 2.91232e-07 5.01179e-08)
(0.625006 -1.91349e-07 -1.39099e-08)
(0.625001 2.81396e-08 -2.66823e-09)
(0.625007 3.58937e-07 5.69371e-07)
(0.625006 -2.544e-07 -4.7758e-07)
(0.625006 2.92656e-07 3.23357e-07)
(0.625006 -2.00008e-07 -1.99504e-07)
(0.625004 1.36923e-07 3.21743e-08)
(0.625001 2.26075e-08 -1.68713e-09)
(0.625007 2.49942e-07 3.44488e-07)
(0.625006 -1.56182e-07 -2.54382e-07)
(0.625006 2.02543e-07 1.81632e-07)
(0.625006 -1.07749e-07 -1.13035e-07)
(0.625004 9.49639e-08 3.00287e-08)
(0.625005 -9.11963e-08 -9.56349e-09)
(0.625001 1.6741e-08 -1.83096e-09)
(0.625007 2.21406e-07 6.16682e-07)
(0.625006 -1.51652e-07 -5.83768e-07)
(0.625006 1.8776e-07 5.04764e-07)
(0.625006 -1.12049e-07 -4.35485e-07)
(0.625004 9.28224e-08 1.62656e-07)
(0.625005 -8.536e-08 -1.06976e-07)
(0.625003 3.90535e-08 1.05185e-08)
(0.625001 1.1386e-08 -1.0247e-09)
(0.625007 1.14117e-07 4.90831e-07)
(0.625006 -5.26525e-08 -4.26597e-07)
(0.625006 7.70856e-08 3.62606e-07)
(0.625006 -1.04778e-08 -2.80707e-07)
(0.625004 3.34594e-08 1.10731e-07)
(0.625005 -1.68745e-08 -7.83615e-08)
(0.625003 1.53519e-08 1.11841e-08)
(0.625003 1.0991e-08 -4.91803e-09)
(0.625001 6.02116e-09 -8.91483e-10)
(0.625007 7.61355e-08 5.50803e-07)
(0.625006 -4.35573e-08 -5.40211e-07)
(0.625006 5.52058e-08 5.2444e-07)
(0.625006 -1.79239e-08 -4.97803e-07)
(0.625004 2.54343e-08 2.39009e-07)
(0.625005 -1.39238e-08 -2.20267e-07)
(0.625003 1.16936e-08 4.91374e-08)
(0.625003 5.7149e-09 -3.85938e-08)
(0.625001 3.44539e-08 2.09388e-09)
(0.625001 1.78636e-09 -4.67076e-10)
(0.625007 1.54338e-08 4.9896e-07)
(0.625006 4.29133e-09 -4.79813e-07)
(0.625006 -1.21256e-08 4.58394e-07)
(0.625006 4.47194e-08 -4.07502e-07)
(0.625004 -2.74177e-08 1.91598e-07)
(0.625005 4.86086e-08 -1.65619e-07)
(0.625003 -1.6293e-08 3.55256e-08)
(0.625003 3.05348e-08 -3.44859e-08)
(0.625001 5.01723e-09 2.28225e-09)
(0.625 3.26612e-08 -1.65281e-09)
(0.625001 3.74711e-08 -8.61591e-10)
(0.625001 4.23847e-08 -2.89842e-09)
(0.625007 4.52192e-07 1.03505e-08)
(0.625001 4.5144e-08 -3.1673e-09)
(0.625007 4.93221e-07 2.04059e-07)
(0.625006 -3.31677e-07 -6.88764e-08)
(0.625001 4.24613e-08 -3.5784e-09)
(0.625007 4.48085e-07 9.16752e-08)
(0.625006 -2.88299e-07 -4.29222e-08)
(0.625006 3.23802e-07 1.28136e-08)
(0.625001 3.88886e-08 -3.5485e-09)
(0.625007 4.54327e-07 4.94308e-07)
(0.625006 -3.14979e-07 -3.63886e-07)
(0.625006 3.47799e-07 1.93935e-07)
(0.625006 -2.60616e-07 -6.72213e-08)
(0.625001 3.37116e-08 -2.80999e-09)
(0.625007 3.70384e-07 2.38503e-07)
(0.625006 -2.45868e-07 -1.57178e-07)
(0.625006 2.89801e-07 1.0099e-07)
(0.625006 -1.91135e-07 -4.99168e-08)
(0.625004 1.32187e-07 7.72565e-09)
(0.625001 2.81215e-08 -2.95833e-09)
(0.625007 3.58709e-07 6.39359e-07)
(0.625006 -2.55247e-07 -5.75785e-07)
(0.625006 2.92557e-07 4.4986e-07)
(0.625006 -2.00641e-07 -3.44525e-07)
(0.625004 1.36609e-07 1.00362e-07)
(0.625005 -1.49608e-07 -3.66935e-08)
(0.625001 2.24898e-08 -1.79384e-09)
(0.625007 2.5252e-07 4.16771e-07)
(0.625006 -1.58306e-07 -3.31208e-07)
(0.625006 2.0232e-07 2.56316e-07)
(0.625006 -1.08467e-07 -1.80569e-07)
(0.625004 9.45467e-08 6.04034e-08)
(0.625005 -9.09803e-08 -3.43331e-08)
(0.625003 4.19339e-08 2.55413e-09)
(0.625001 1.65962e-08 -1.72595e-09)
(0.625007 2.21265e-07 6.22758e-07)
(0.625006 -1.51961e-07 -6.10005e-07)
(0.625006 1.87414e-07 5.63973e-07)
(0.625006 -1.13162e-07 -5.21293e-07)
(0.625004 9.26638e-08 2.24502e-07)
(0.625005 -8.54756e-08 -1.83734e-07)
(0.625003 3.88202e-08 3.23987e-08)
(0.625003 -7.34782e-09 -1.37726e-08)
(0.625001 1.12353e-08 -9.14166e-10)
(0.625007 1.25507e-07 5.16276e-07)
(0.625006 -6.38668e-08 -4.73498e-07)
(0.625006 8.44302e-08 4.27608e-07)
(0.625006 -1.73887e-08 -3.57234e-07)
(0.625004 3.48737e-08 1.53337e-07)
(0.625005 -1.83083e-08 -1.22856e-07)
(0.625003 1.54001e-08 2.21464e-08)
(0.625003 1.09408e-08 -1.74844e-08)
(0.625001 5.76868e-08 5.75088e-10)
(0.625001 5.95383e-09 -6.04584e-10)
(0.625007 8.2362e-08 5.3104e-07)
(0.625006 -4.94891e-08 -5.33345e-07)
(0.625006 6.00441e-08 5.35462e-07)
(0.625006 -2.25648e-08 -5.24335e-07)
(0.625004 2.69166e-08 2.66867e-07)
(0.625005 -1.55614e-08 -2.63266e-07)
(0.625003 1.18782e-08 6.68394e-08)
(0.625003 5.5534e-09 -6.61526e-08)
(0.625001 3.45022e-08 6.27954e-09)
(0.625 7.2408e-08 -3.54913e-09)
(0.625001 1.748e-09 -1.01393e-10)
(0.625007 2.32196e-08 4.77408e-07)
(0.625006 -7.26251e-09 -4.7952e-07)
(0.625006 2.43512e-09 4.80564e-07)
(0.625006 2.45795e-08 -4.5078e-07)
(0.625004 -1.63732e-08 2.24475e-07)
(0.625005 3.53836e-08 -2.08579e-07)
(0.625003 -1.26314e-08 4.89676e-08)
(0.625003 2.67534e-08 -5.30395e-08)
(0.625001 5.58718e-09 4.2426e-09)
(0.625 3.21855e-08 -5.78493e-09)
(0.624998 4.99283e-08 -8.55207e-12)
(0.625001 2.92687e-08 -1.22591e-09)
(0.625001 3.88681e-08 -2.78334e-09)
(0.625007 4.63379e-07 6.53629e-08)
(0.625001 4.36623e-08 -5.09786e-09)
(0.625007 4.47991e-07 3.68922e-08)
(0.625006 -2.93877e-07 -1.06672e-08)
(0.625001 4.60611e-08 -4.63267e-09)
(0.625007 4.89545e-07 3.57643e-07)
(0.625006 -3.31368e-07 -2.16546e-07)
(0.625006 3.51959e-07 6.29877e-08)
(0.625001 4.30303e-08 -4.61016e-09)
(0.625007 4.43814e-07 1.4623e-07)
(0.625006 -2.87559e-07 -8.71224e-08)
(0.625006 3.22471e-07 4.50456e-08)
(0.625006 -2.33825e-07 -1.26379e-08)
(0.625001 3.90808e-08 -4.30631e-09)
(0.625007 4.5292e-07 6.02611e-07)
(0.625006 -3.15685e-07 -5.0839e-07)
(0.625006 3.47118e-07 3.37616e-07)
(0.625006 -2.60411e-07 -2.10776e-07)
(0.625004 1.6388e-07 3.36153e-08)
(0.625001 3.37185e-08 -3.14452e-09)
(0.625007 3.69085e-07 3.12017e-07)
(0.625006 -2.45559e-07 -2.25539e-07)
(0.625006 2.88278e-07 1.6076e-07)
(0.625006 -1.90832e-07 -1.01684e-07)
(0.625004 1.31596e-07 2.72218e-08)
(0.625005 -1.47884e-07 -8.46758e-09)
(0.625001 2.79671e-08 -3.12558e-09)
(0.625007 3.58314e-07 6.72953e-07)
(0.625006 -2.56e-07 -6.43642e-07)
(0.625006 2.92624e-07 5.4457e-07)
(0.625006 -2.01752e-07 -4.78354e-07)
(0.625004 1.36431e-07 1.7317e-07)
(0.625005 -1.49243e-07 -1.14803e-07)
(0.625003 5.91802e-08 1.09488e-08)
(0.625001 2.22934e-08 -1.77391e-09)
(0.625007 2.57121e-07 4.72982e-07)
(0.625006 -1.62079e-07 -4.02e-07)
(0.625006 2.03183e-07 3.3165e-07)
(0.625006 -1.09925e-07 -2.56333e-07)
(0.625004 9.41787e-08 9.59163e-08)
(0.625005 -9.07946e-08 -6.96919e-08)
(0.625003 4.16191e-08 9.01999e-09)
(0.625003 5.17108e-10 -4.4316e-09)
(0.625001 1.64092e-08 -1.51771e-09)
(0.625007 2.21887e-07 6.07517e-07)
(0.625006 -1.52419e-07 -6.12601e-07)
(0.625006 1.86885e-07 5.92483e-07)
(0.625006 -1.14234e-07 -5.79831e-07)
(0.625004 9.24356e-08 2.69839e-07)
(0.625005 -8.57754e-08 -2.53874e-07)
(0.625003 3.8584e-08 5.49273e-08)
(0.625003 -7.13185e-09 -4.31855e-08)
(0.625001 8.9404e-08 2.33989e-09)
(0.625001 1.10707e-08 -6.71288e-10)
(0.625007 1.37015e-07 5.16264e-07)
(0.625006 -7.6208e-08 -4.9788e-07)
(0.625006 9.38449e-08 4.73331e-07)
(0.625006 -2.68135e-08 -4.22834e-07)
(0.625004 3.73815e-08 1.94205e-07)
(0.625005 -2.07471e-08 -1.70378e-07)
(0.625003 1.55873e-08 3.4723e-08)
(0.625003 1.07582e-08 -3.49747e-08)
(0.625001 5.77915e-08 1.97155e-09)
(0.625 1.26782e-07 -1.58611e-09)
(0.625001 5.88293e-09 -2.05022e-10)
(0.625007 8.84649e-08 4.96362e-07)
(0.625006 -5.58611e-08 -5.1233e-07)
(0.625006 6.53483e-08 5.29973e-07)
(0.625006 -2.83499e-08 -5.33846e-07)
(0.625004 2.86709e-08 2.82153e-07)
(0.625005 -1.7882e-08 -2.94103e-07)
(0.625003 1.21351e-08 7.93188e-08)
(0.625003 5.12345e-09 -9.13366e-08)
(0.625001 3.4555e-08 1.02679e-08)
(0.625 7.24952e-08 -1.12044e-08)
(0.624998 1.5761e-07 6.64758e-11)
(0.625001 1.71292e-09 3.75095e-10)
(0.625007 2.8379e-08 4.36012e-07)
(0.625006 -1.52574e-08 -4.57686e-07)
(0.625006 1.31157e-08 4.79311e-07)
(0.625006 8.84271e-09 -4.74079e-07)
(0.625004 -6.46625e-09 2.47076e-07)
(0.625005 2.27798e-08 -2.45292e-07)
(0.625003 -8.52802e-09 6.16422e-08)
(0.625003 2.22616e-08 -7.27048e-08)
(0.625001 6.39169e-09 6.51195e-09)
(0.625 3.14823e-08 -1.12832e-08)
(0.624998 5.00523e-08 -9.3353e-11)
(0.624995 1.02475e-07 -4.78506e-10)
(0.625001 1.89178e-08 -9.64616e-10)
(0.625001 3.07996e-08 -3.93757e-09)
(0.625007 4.1206e-07 8.68404e-09)
(0.625001 4.0252e-08 -5.0214e-09)
(0.625007 4.5938e-07 2.0639e-07)
(0.625006 -3.01913e-07 -6.92977e-08)
(0.625001 4.47284e-08 -7.32991e-09)
(0.625007 4.43477e-07 7.48082e-08)
(0.625006 -2.93125e-07 -3.77222e-08)
(0.625006 2.96602e-07 1.10012e-08)
(0.625001 4.6631e-08 -6.09527e-09)
(0.625007 4.86513e-07 5.03318e-07)
(0.625006 -3.31303e-07 -3.78515e-07)
(0.625006 3.50905e-07 1.98181e-07)
(0.625006 -2.726e-07 -6.9074e-08)
(0.625001 4.32812e-08 -5.50404e-09)
(0.625007 4.39923e-07 2.08055e-07)
(0.625006 -2.86592e-07 -1.40086e-07)
(0.625006 3.20872e-07 8.99669e-08)
(0.625006 -2.33003e-07 -4.49798e-08)
(0.625004 1.53976e-07 7.2707e-09)
(0.625001 3.90159e-08 -4.89355e-09)
(0.625007 4.52096e-07 6.80669e-07)
(0.625006 -3.16685e-07 -6.17921e-07)
(0.625006 3.46922e-07 4.72596e-07)
(0.625006 -2.60496e-07 -3.66732e-07)
(0.625004 1.63279e-07 1.05336e-07)
(0.625005 -1.83267e-07 -3.80374e-08)
(0.625001 3.35601e-08 -3.35231e-09)
(0.625007 3.691e-07 3.82867e-07)
(0.625006 -2.45974e-07 -2.97864e-07)
(0.625006 2.87013e-07 2.28208e-07)
(0.625006 -1.90518e-07 -1.62998e-07)
(0.625004 1.3094e-07 5.44345e-08)
(0.625005 -1.47197e-07 -3.02703e-08)
(0.625003 5.97834e-08 2.17343e-09)
(0.625001 2.77201e-08 -3.06919e-09)
(0.625007 3.57625e-07 6.78652e-07)
(0.625006 -2.56318e-07 -6.73959e-07)
(0.625006 2.9269e-07 6.1131e-07)
(0.625006 -2.03055e-07 -5.77193e-07)
(0.625004 1.36519e-07 2.4073e-07)
(0.625005 -1.49003e-07 -1.98824e-07)
(0.625003 5.88294e-08 3.39016e-08)
(0.625003 -1.05e-08 -1.46884e-08)
(0.625001 2.20286e-08 -1.65695e-09)
(0.625007 2.63459e-07 5.08179e-07)
(0.625006 -1.679e-07 -4.57358e-07)
(0.625006 2.05459e-07 4.00618e-07)
(0.625006 -1.12769e-07 -3.33323e-07)
(0.625004 9.41009e-08 1.35661e-07)
(0.625005 -9.07768e-08 -1.10671e-07)
(0.625003 4.12696e-08 1.80966e-08)
(0.625003 8.33846e-10 -1.5808e-08)
(0.625001 1.18769e-07 4.37311e-10)
(0.625001 1.62063e-08 -1.16873e-09)
(0.625007 2.23537e-07 5.761e-07)
(0.625006 -1.53656e-07 -5.94121e-07)
(0.625006 1.86404e-07 5.97803e-07)
(0.625006 -1.15349e-07 -6.06269e-07)
(0.625004 9.20566e-08 3.0141e-07)
(0.625005 -8.61418e-08 -3.05122e-07)
(0.625003 3.8372e-08 7.53577e-08)
(0.625003 -6.96213e-09 -7.48041e-08)
(0.625001 8.94378e-08 7.0955e-09)
(0.625001 1.80449e-07 -3.88316e-09)
(0.625001 1.09009e-08 -3.0226e-10)
(0.625007 1.47702e-07 4.93046e-07)
(0.625006 -8.8632e-08 -4.97294e-07)
(0.625006 1.04314e-07 4.96613e-07)
(0.625006 -3.86465e-08 -4.69576e-07)
(0.625004 4.10002e-08 2.29012e-07)
(0.625005 -2.4638e-08 -2.15995e-07)
(0.625003 1.60278e-08 4.84242e-08)
(0.625003 1.03209e-08 -5.44953e-08)
(0.625001 5.79107e-08 3.81176e-09)
(0.625001 1.2693e-07 -5.65668e-09)
(0.624998 2.74085e-07 -4.93535e-11)
(0.625001 5.80284e-09 2.94434e-10)
(0.625007 9.42838e-08 4.4705e-07)
(0.625006 -6.21593e-08 -4.77087e-07)
(0.625006 7.10557e-08 5.09553e-07)
(0.625006 -3.47328e-08 -5.27491e-07)
(0.625004 3.0912e-08 2.87837e-07)
(0.625005 -2.06455e-08 -3.11261e-07)
(0.625003 1.25294e-08 8.80108e-08)
(0.625003 4.49627e-09 -1.10169e-07)
(0.625001 3.46246e-08 1.37745e-08)
(0.625 7.25479e-08 -1.95699e-08)
(0.624998 1.57543e-07 1.11918e-10)
(0.624995 3.11131e-07 -6.94555e-10)
(0.625001 1.68528e-09 9.41824e-10)
(0.625007 3.16847e-08 3.78116e-07)
(0.625006 -2.05012e-08 -4.16526e-07)
(0.625006 2.04416e-08 4.56601e-07)
(0.625006 -2.73389e-09 -4.7423e-07)
(0.625004 1.21897e-09 2.58541e-07)
(0.625005 1.13819e-08 -2.70968e-07)
(0.625003 -4.65399e-09 7.23337e-08)
(0.625003 1.71637e-08 -9.11761e-08)
(0.625001 7.29796e-09 9.09767e-09)
(0.625 3.04365e-08 -1.72842e-08)
(0.624998 5.01751e-08 -3.00833e-10)
(0.624995 1.02285e-07 -1.72259e-09)
(0.62499 1.97856e-07 3.83738e-10)
(0.625001 1.27809e-08 -9.72794e-10)
(0.625001 2.05912e-08 -3.12428e-09)
(0.625007 3.92832e-07 6.49565e-08)
(0.625001 3.2336e-08 -7.03396e-09)
(0.625007 4.07595e-07 3.08917e-08)
(0.625006 -2.52208e-07 -9.54846e-09)
(0.625001 4.14179e-08 -7.38126e-09)
(0.625007 4.55498e-07 3.62907e-07)
(0.625006 -3.01581e-07 -2.18429e-07)
(0.625006 3.08075e-07 6.46119e-08)
(0.625001 4.54439e-08 -9.37169e-09)
(0.625007 4.3904e-07 1.19986e-07)
(0.625006 -2.92065e-07 -7.60508e-08)
(0.625006 2.95374e-07 3.85753e-08)
(0.625006 -2.22748e-07 -1.08461e-08)
(0.625001 4.68039e-08 -7.43447e-09)
(0.625007 4.84255e-07 6.17151e-07)
(0.625006 -3.31671e-07 -5.31853e-07)
(0.625006 3.50004e-07 3.46653e-07)
(0.625006 -2.71904e-07 -2.17303e-07)
(0.625004 1.74681e-07 3.44136e-08)
(0.625001 4.32391e-08 -6.16246e-09)
(0.625007 4.36625e-07 2.73998e-07)
(0.625006 -2.85651e-07 -2.01396e-07)
(0.625006 3.19054e-07 1.42865e-07)
(0.625006 -2.31944e-07 -9.10771e-08)
(0.625004 1.53019e-07 2.53192e-08)
(0.625005 -1.62159e-07 -7.42548e-09)
(0.625001 3.87469e-08 -5.2828e-09)
(0.625007 4.51196e-07 7.19532e-07)
(0.625006 -3.17874e-07 -6.95811e-07)
(0.625006 3.47057e-07 5.76123e-07)
(0.625006 -2.61095e-07 -5.12747e-07)
(0.625004 1.62832e-07 1.83124e-07)
(0.625005 -1.82672e-07 -1.19423e-07)
(0.625003 7.19981e-08 1.12649e-08)
(0.625001 3.32776e-08 -3.36936e-09)
(0.625007 3.70804e-07 4.42102e-07)
(0.625006 -2.47574e-07 -3.6848e-07)
(0.625006 2.86402e-07 2.98532e-07)
(0.625006 -1.90559e-07 -2.32877e-07)
(0.625004 1.3031e-07 8.65134e-08)
(0.625005 -1.4639e-07 -6.13512e-08)
(0.625003 5.9383e-08 7.62122e-09)
(0.625003 2.25568e-09 -4.11024e-09)
(0.625001 2.74032e-08 -2.84658e-09)
(0.625007 3.56683e-07 6.58828e-07)
(0.625006 -2.56272e-07 -6.76278e-07)
(0.625006 2.92323e-07 6.43137e-07)
(0.625006 -2.04413e-07 -6.45708e-07)
(0.625004 1.3675e-07 2.91369e-07)
(0.625005 -1.4902e-07 -2.76648e-07)
(0.625003 5.85112e-08 5.79908e-08)
(0.625003 -1.00184e-08 -4.62479e-08)
(0.625001 1.55298e-07 2.43213e-09)
(0.625001 2.1732e-08 -1.37279e-09)
(0.625007 2.71051e-07 5.17257e-07)
(0.625006 -1.75596e-07 -4.91987e-07)
(0.625006 2.09497e-07 4.53965e-07)
(0.625006 -1.17452e-07 -4.04143e-07)
(0.625004 9.4602e-08 1.75922e-07)
(0.625005 -9.11965e-08 -1.56082e-07)
(0.625003 4.09304e-08 2.89614e-08)
(0.625003 1.13642e-09 -3.17957e-08)
(0.625001 1.18836e-07 1.50768e-09)
(0.625001 2.48008e-07 -1.44925e-09)
(0.625001 1.59905e-08 -7.01865e-10)
(0.625007 2.26727e-07 5.30944e-07)
(0.625006 -1.56034e-07 -5.60599e-07)
(0.625006 1.86537e-07 5.82249e-07)
(0.625006 -1.16803e-07 -6.09264e-07)
(0.625004 9.154e-08 3.16588e-07)
(0.625005 -8.65233e-08 -3.40701e-07)
(0.625003 3.81447e-08 8.99664e-08)
(0.625003 -6.89432e-09 -1.04046e-07)
(0.625001 8.94695e-08 1.17907e-08)
(0.625001 1.80828e-07 -1.23217e-08)
(0.624998 4.04718e-07 8.42315e-11)
(0.625001 1.07368e-08 1.86543e-10)
(0.625007 1.57178e-07 4.49408e-07)
(0.625006 -1.00108e-07 -4.73896e-07)
(0.625006 1.14868e-07 4.95099e-07)
(0.625006 -5.17247e-08 -4.9405e-07)
(0.625004 4.56668e-08 2.53438e-07)
(0.625005 -2.9977e-08 -2.54928e-07)
(0.625003 1.68422e-08 6.16917e-08)
(0.625003 9.46999e-09 -7.50822e-08)
(0.625001 5.80554e-08 6.02413e-09)
(0.625001 1.27045e-07 -1.13353e-08)
(0.624998 2.74019e-07 -2.22496e-10)
(0.624995 5.4441e-07 -4.31246e-10)
(0.625001 5.73113e-09 8.76766e-10)
(0.625007 9.93336e-08 3.84983e-07)
(0.625006 -6.81941e-08 -4.27767e-07)
(0.625006 7.66617e-08 4.74397e-07)
(0.625006 -4.16154e-08 -5.07169e-07)
(0.625004 3.3391e-08 2.84532e-07)
(0.625005 -2.40878e-08 -3.18003e-07)
(0.625003 1.29956e-08 9.24606e-08)
(0.625003 3.55497e-09 -1.24139e-07)
(0.625001 3.46889e-08 1.61216e-08)
(0.625001 7.25177e-08 -2.73742e-08)
(0.624998 1.57473e-07 4.34996e-11)
(0.624995 3.11163e-07 -2.3427e-09)
(0.62499 6.04072e-07 -4.33865e-10)
(0.625001 1.65862e-09 1.56972e-09)
(0.625007 3.41758e-08 3.08584e-07)
(0.625006 -2.38685e-08 -3.59105e-07)
(0.625006 2.52583e-08 4.14561e-07)
(0.625006 -1.08041e-08 -4.53062e-07)
(0.625004 6.81458e-09 2.5732e-07)
(0.625005 2.44702e-09 -2.84644e-07)
(0.625003 -1.20185e-09 7.96255e-08)
(0.625003 1.22831e-08 -1.06982e-07)
(0.625001 8.28053e-09 1.15711e-08)
(0.625001 2.92215e-08 -2.35762e-08)
(0.624998 5.02955e-08 -4.71005e-10)
(0.624995 1.02078e-07 -3.40527e-09)
(0.62499 1.97881e-07 1.00468e-09)
(0.62498 3.55877e-07 -6.326e-09)
(0.625001 8.25337e-09 -7.05545e-10)
(0.625001 1.45962e-08 -3.1122e-09)
(0.625007 3.32723e-07 7.23188e-09)
(0.625001 2.2301e-08 -5.65451e-09)
(0.625007 3.88714e-07 2.05381e-07)
(0.625006 -2.46978e-07 -6.9297e-08)
(0.625001 3.36658e-08 -1.0168e-08)
(0.625007 4.02797e-07 6.25638e-08)
(0.625006 -2.51498e-07 -3.34414e-08)
(0.625006 2.56956e-07 9.88026e-09)
(0.625001 4.22195e-08 -9.67895e-09)
(0.625007 4.52355e-07 5.12464e-07)
(0.625006 -3.01462e-07 -3.83336e-07)
(0.625006 3.07071e-07 2.03815e-07)
(0.625006 -2.14739e-07 -6.92706e-08)
(0.625001 4.57625e-08 -1.10614e-08)
(0.625007 4.35101e-07 1.72012e-07)
(0.625006 -2.90608e-07 -1.22122e-07)
(0.625006 2.9396e-07 7.69389e-08)
(0.625006 -2.21612e-07 -3.83747e-08)
(0.625004 1.5134e-07 6.36134e-09)
(0.625001 4.66184e-08 -8.50397e-09)
(0.625007 4.82674e-07 7.0118e-07)
(0.625006 -3.32338e-07 -6.51048e-07)
(0.625006 3.49494e-07 4.87644e-07)
(0.625006 -2.71395e-07 -3.80114e-07)
(0.625004 1.73715e-07 1.08194e-07)
(0.625005 -1.73626e-07 -3.873e-08)
(0.625001 4.29631e-08 -6.55008e-09)
(0.625007 4.34161e-07 3.39854e-07)
(0.625006 -2.85007e-07 -2.67797e-07)
(0.625006 3.17276e-07 2.02853e-07)
(0.625006 -2.30659e-07 -1.45926e-07)
(0.625004 1.51936e-07 5.00854e-08)
(0.625005 -1.61364e-07 -2.63643e-08)
(0.625003 7.15868e-08 2.01627e-09)
(0.625001 3.83327e-08 -5.35951e-09)
(0.625007 4.49871e-07 7.2747e-07)
(0.625006 -3.18774e-07 -7.32949e-07)
(0.625006 3.47403e-07 6.50743e-07)
(0.625006 -2.62016e-07 -6.23731e-07)
(0.625004 1.62717e-07 2.56266e-07)
(0.625005 -1.82193e-07 -2.081e-07)
(0.625003 7.16893e-08 3.50591e-08)
(0.625003 1.18869e-09 -1.52415e-08)
(0.625001 3.28969e-08 -3.22369e-09)
(0.625007 3.74012e-07 4.84171e-07)
(0.625006 -2.50976e-07 -4.28373e-07)
(0.625006 2.86792e-07 3.66234e-07)
(0.625006 -1.91456e-07 -3.06336e-07)
(0.625004 1.29916e-07 1.2286e-07)
(0.625005 -1.45532e-07 -9.78671e-08)
(0.625003 5.89388e-08 1.52183e-08)
(0.625003 2.93513e-09 -1.4558e-08)
(0.625001 1.9121e-07 3.04834e-10)
(0.625001 2.70537e-08 -2.40905e-09)
(0.625007 3.55986e-07 6.21105e-07)
(0.625006 -2.56125e-07 -6.53023e-07)
(0.625006 2.91503e-07 6.48218e-07)
(0.625006 -2.05522e-07 -6.76662e-07)
(0.625004 1.37046e-07 3.27089e-07)
(0.625005 -1.49143e-07 -3.34692e-07)
(0.625003 5.82894e-08 8.01736e-08)
(0.625003 -9.59393e-09 -8.07092e-08)
(0.625001 1.55341e-07 7.43739e-09)
(0.625001 3.17343e-07 -4.09234e-09)
(0.625001 2.14153e-08 -9.47262e-10)
(0.625007 2.79382e-07 5.01223e-07)
(0.625006 -1.84708e-07 -5.00878e-07)
(0.625006 2.15081e-07 4.86752e-07)
(0.625006 -1.24374e-07 -4.59398e-07)
(0.625004 9.58801e-08 2.12924e-07)
(0.625005 -9.2405e-08 -2.01776e-07)
(0.625003 4.06977e-08 4.14668e-08)
(0.625003 1.33748e-09 -5.00309e-08)
(0.625001 1.18886e-07 2.94086e-09)
(0.625001 2.48491e-07 -5.16702e-09)
(0.624998 5.47603e-07 -2.77046e-11)
(0.625001 1.57843e-08 -1.20567e-10)
(0.625007 2.3111e-07 4.73484e-07)
(0.625006 -1.60049e-07 -5.14209e-07)
(0.625006 1.8764e-07 5.50931e-07)
(0.625006 -1.19206e-07 -5.9132e-07)
(0.625004 9.10125e-08 3.19339e-07)
(0.625005 -8.69437e-08 -3.57686e-07)
(0.625003 3.78641e-08 9.98275e-08)
(0.625003 -6.90555e-09 -1.26103e-07)
(0.625001 8.95044e-08 1.59779e-08)
(0.625001 1.81193e-07 -2.17005e-08)
(0.624998 4.04517e-07 1.83461e-10)
(0.624995 8.0046e-07 -7.25371e-10)
(0.625001 1.05957e-08 7.82404e-10)
(0.625007 1.65346e-07 3.89529e-07)
(0.625006 -1.10354e-07 -4.30592e-07)
(0.625006 1.24629e-07 4.70913e-07)
(0.625006 -6.49746e-08 -4.93777e-07)
(0.625004 5.08763e-08 2.65746e-07)
(0.625005 -3.66686e-08 -2.82403e-07)
(0.625003 1.80285e-08 7.30441e-08)
(0.625003 8.03214e-09 -9.46558e-08)
(0.625001 5.8248e-08 8.59771e-09)
(0.625001 1.27084e-07 -1.75956e-08)
(0.624998 2.73957e-07 -5.09868e-10)
(0.624995 5.44422e-07 -1.59467e-09)
(0.62499 1.05518e-06 4.73025e-10)
(0.625001 5.66756e-09 1.51995e-09)
(0.625007 1.04082e-07 3.13253e-07)
(0.625006 -7.35309e-08 -3.6629e-07)
(0.625006 8.19903e-08 4.24863e-07)
(0.625006 -4.84499e-08 -4.72716e-07)
(0.625004 3.60952e-08 2.73114e-07)
(0.625005 -2.78576e-08 -3.15014e-07)
(0.625003 1.36065e-08 9.37549e-08)
(0.625003 2.40457e-09 -1.32545e-07)
(0.625001 3.4758e-08 1.76787e-08)
(0.625001 7.24212e-08 -3.34986e-08)
(0.624998 1.57406e-07 -5.73046e-12)
(0.624995 3.11195e-07 -4.41173e-09)
(0.62499 6.04163e-07 -1.30095e-09)
(0.62498 1.11553e-06 -5.26163e-09)
(0.625001 1.6422e-09 2.20754e-09)
(0.625007 3.58711e-08 2.33006e-07)
(0.625006 -2.65593e-08 -2.90551e-07)
(0.625006 2.83304e-08 3.56475e-07)
(0.625006 -1.61625e-08 -4.12673e-07)
(0.625004 1.06274e-08 2.4448e-07)
(0.625005 -4.16956e-09 -2.84407e-07)
(0.625003 1.45441e-09 8.32376e-08)
(0.625003 7.84644e-09 -1.17991e-07)
(0.625001 9.20223e-09 1.3686e-08)
(0.625001 2.78502e-08 -2.94334e-08)
(0.624998 5.03995e-08 -5.12286e-10)
(0.624995 1.0185e-07 -5.21423e-09)
(0.62499 1.97796e-07 1.18649e-09)
(0.62498 3.55943e-07 -2.00139e-08)
(0.624971 6.88673e-07 -1.54522e-08)
(0.625001 1.70546e-08 -5.09618e-10)
(0.625001 1.02214e-08 -2.24192e-09)
(0.625007 3.02294e-07 6.45913e-08)
(0.625001 1.64502e-08 -5.53981e-09)
(0.625007 3.28106e-07 2.56924e-08)
(0.625006 -1.84162e-07 -6.99621e-09)
(0.625001 2.38351e-08 -8.30585e-09)