/*--------------------------------*- C++ -*----------------------------------*\
  =========                 |
  \\      /  F ield         | OpenFOAM: The Open Source CFD Toolbox
   \\    /   O peration     | Website:  https://openfoam.org
    \\  /    A nd           | Version:  7
     \\/     M anipulation  |
\*---------------------------------------------------------------------------*/
FoamFile
{
    version     2.0;
    format      ascii;
    class       volScalarField;
    location    "300";
    object      p;
}
// * * * * * * * * * * * * * * * * * * * * * * * * * * * * * * * * * * * * * //

dimensions      [0 2 -2 0 0 0 0];

internalField   nonuniform List<scalar> 
43144
(
20.1105
20.1105
20.1106
15.482
20.1104
20.1106
15.4817
20.1107
15.482
11.1607
20.1103
20.1105
15.4811
20.1107
15.4816
11.1596
20.111
15.482
11.1622
7.96406
20.11
20.1103
15.4803
20.1106
15.4811
11.158
20.111
15.4817
11.1612
7.95972
20.1115
15.4823
11.165
7.96117
0.284047
20.1097
20.1101
15.4793
20.1105
15.4803
11.1562
20.1109
15.4812
11.1596
7.956
20.1115
15.4819
11.164
7.95701
0.118658
20.1124
15.4829
11.1701
7.95868
0.517496
0.023149
0.513083
20.1092
20.1098
15.4781
20.1102
15.4793
11.1543
20.1108
15.4804
11.1579
7.95064
20.1115
15.4814
11.1625
7.95328
0.0306767
20.1124
15.4825
11.1693
7.95468
0.369244
-0.124417
0.416076
20.1137
15.484
11.179
7.95732
0.785103
0.617748
-0.00293133
0.414211
0.134768
20.1086
20.1093
15.4766
20.1099
15.478
11.1522
20.1105
15.4793
11.1559
7.945
20.1113
15.4806
11.1608
7.94791
-0.017518
20.1123
15.482
11.1679
7.95092
0.289184
-0.215036
0.363952
20.1138
15.4836
11.1783
7.95335
0.65998
0.52764
-0.0968223
0.339928
0.0716032
20.1158
15.4861
11.1929
7.95829
1.10035
0.746534
0.18797
0.0126893
0.338865
0.0873145
0.101494
20.1079
20.1087
15.475
20.1094
15.4766
11.1501
20.1102
15.4781
11.1539
7.93907
20.1111
15.4796
11.1588
7.94225
-0.0472887
20.1122
15.4812
11.1662
7.94554
0.242136
-0.262661
0.335929
20.1137
15.4831
11.177
7.94954
0.588163
0.479583
-0.159479
0.288152
0.0344095
20.1158
15.4857
11.1925
7.95429
0.999064
0.668898
0.128332
-0.0474204
0.308531
0.0383638
0.0665223
20.1188
15.4897
11.2137
7.96383
1.47426
0.898579
0.25568
0.129335
0.0160594
0.263599
0.0580344
0.0758657
0.0353321
20.1071
20.108
15.4734
20.1089
15.475
11.148
20.1097
15.4767
11.1518
7.9333
20.1107
15.4783
11.1568
7.93631
-0.0667723
20.1119
15.4801
11.1643
7.93987
0.212821
-0.292021
0.316171
20.1135
15.4823
11.1753
7.94415
0.542848
0.451546
-0.202297
0.260775
0.0139502
20.1158
15.4852
11.1913
7.95042
0.935994
0.62514
0.0937771
-0.0822883
0.281262
0.0016661
0.0467816
20.1188
15.4893
11.2135
7.95979
1.39661
0.834161
0.20352
0.0959098
-0.0301664
0.256928
0.0334132
0.0493703
0.0177951
20.1229
15.4954
11.2433
7.97721
1.90662
1.08151
0.337856
0.164703
0.0490754
0.22072
0.0164586
0.0320852
0.0576324
0.022646
0.0220537
20.1062
20.1072
15.4716
20.1082
15.4733
11.1459
20.1092
15.4751
11.1496
7.92787
20.1103
15.4769
11.1547
7.93054
-0.0798474
20.1116
15.4789
11.1622
7.93392
0.193553
-0.31119
0.3009
20.1133
15.4813
11.1735
7.93847
0.514244
0.431746
-0.230961
0.241243
0.000494384
20.1156
15.4844
11.1897
7.94503
0.893258
0.597307
0.0733647
-0.114877
0.25789
-0.0183486
0.0360796
20.1187
15.4887
11.2125
7.95587
1.34302
0.794919
0.171856
0.0775087
-0.053903
0.25228
0.0113679
0.0301623
0.00790114
20.1229
15.495
11.2433
7.97315
1.85088
1.03039
0.293903
0.135244
0.0321472
0.215682
-0.0191433
0.0211138
0.0440859
0.00963539
0.0140325
20.1284
15.504
11.2832
8.0025
2.39072
1.29989
0.440054
0.207586
0.066581
0.0282493
0.0187177
0.198112
0.0102123
0.0421988
0.0132786
0.0162916
0.00869397
20.1053
20.1063
15.4699
20.1073
15.4716
11.1439
20.1085
15.4734
11.1476
7.92295
20.1097
15.4753
11.1526
7.92511
-0.0888948
20.1111
15.4775
11.1601
7.92815
0.18061
-0.324032
0.288888
20.113
15.48
11.1715
7.93252
0.495298
0.416482
-0.250201
0.226057
-0.00895213
20.1154
15.4833
11.1879
7.93934
0.865721
0.577562
0.0598053
-0.138851
0.238733
-0.0316017
0.0293507
20.1186
15.4879
11.211
7.9505
1.30393
0.76773
0.151627
0.0667762
-0.0817235
0.237413
-0.00589624
0.0197626
0.00256286
20.1229
15.4945
11.2424
7.96921
1.8072
0.996061
0.265299
0.118316
0.0229096
0.21535
-0.0400183
0.0115058
0.032915
8.96232e-05
0.00956945
20.1284
15.5036
11.2834
7.99851
2.35362
1.26131
0.404638
0.18254
0.0515703
0.0204585
0.0113633
0.191444
-0.0132428
0.036545
0.00664799
0.0104162
0.00539686
20.1352
15.5162
11.3344
8.04407
2.91363
1.55613
0.566626
0.260997
0.0878199
0.0361356
0.0112434
0.0344516
0.0135199
0.166158
-0.00189374
0.00533858
0.011878
0.0063217
0.00550963
20.1043
20.1053
15.4682
20.1065
15.4699
11.142
20.1076
15.4717
11.1455
7.9186
20.109
15.4736
11.1505
7.92019
-0.0952841
20.1106
15.4759
11.158
7.92272
0.171646
-0.332895
0.279484
20.1125
15.4786
11.1694
7.92674
0.482536
0.404502
-0.263268
0.214091
-0.0157074
20.115
15.4821
11.1859
7.93339
0.847257
0.562346
0.0502511
-0.156009
0.223316
-0.040926
0.0246264
20.1184
15.4869
11.2093
7.94481
1.27795
0.748204
0.138009
0.059941
-0.101152
0.221792
-0.0188109
0.0131359
-0.000637041
20.1228
15.4937
11.2411
7.96392
1.7728
0.970106
0.245537
0.107602
0.017556
0.203733
-0.0654278
-0.00097215
0.0241205
-0.00507348
0.00715877
20.1284
15.5031
11.2827
7.99463
2.31973
1.23215
0.379428
0.16714
0.0430636
0.0162869
0.00476072
0.189641
-0.0299935
0.0318975
0.00106108
0.00613727
0.0035785
20.1353
15.5158
11.3347
8.04028
2.89094
1.52843
0.539564
0.240593
0.0749707
0.0292007
0.00802969
0.0316321
0.00799146
0.16164
-0.0132898
0.00272155
0.00889557
0.00392599
0.00425552
15.5322
11.3969
8.1055
3.45683
1.85043
0.720971
0.32742
0.114337
0.0456934
0.0144908
0.00647363
0.00136473
0.0307648
0.00746647
0.116449
-0.0117255
0.0081747
0.00448478
0.00461058
0.00306371
20.1032
20.1043
15.4666
20.1055
15.4682
11.1401
20.1067
15.4699
11.1436
7.91483
20.1082
15.4719
11.1485
7.91584
-0.0998804
20.1099
15.4742
11.156
7.91779
0.165312
-0.339134
0.272264
20.1119
15.477
11.1673
7.92131
0.47368
0.395124
-0.272376
0.204729
-0.0205215
20.1146
15.4807
11.1839
7.92761
0.834747
0.550427
0.0434087
-0.168056
0.211103
-0.0475867
0.0211372
20.1181
15.4857
11.2074
7.93888
1.26022
0.733102
0.12835
0.0551172
-0.11549
0.207746
-0.0282667
0.00846484
-0.00267544
20.1225
15.4927
11.2395
7.95827
1.74896
0.951036
0.231965
0.100656
0.0142999
0.191524
-0.0826969
-0.0119554
0.0176236
-0.00821756
0.00574435
20.1282
15.5024
11.2816
7.98948
2.29082
1.20808
0.360533
0.156579
0.0377172
0.0138675
-0.00616395
0.178999
-0.0508627
0.0257944
-0.0032463
0.00381641
0.00259902
20.1352
15.5153
11.3342
8.03654
2.86609
1.50447
0.518018
0.226888
0.0672103
0.0253556
0.00632943
0.0289085
0.0015532
0.161031
-0.0230413
0.000123822
0.00640186
0.00218652
0.00356063
15.5318
11.3972
8.10205
3.44422
1.83139
0.701406
0.311632
0.103786
0.0397303
0.0116242
0.00524923
0.000370141
0.0291775
0.00495512
0.116288
-0.0141956
0.00705218
0.00327312
0.0037021
0.00260479
15.5517
11.4688
8.1883
3.99874
2.17965
0.905267
0.408985
0.147449
0.057621
0.0184258
0.00770099
0.00341341
0.00634432
-0.000336504
0.0260783
-0.000480825
0.0596105
-0.0142085
0.00293401
0.00390908
0.00273823
0.00347294
20.1022
20.1033
15.465
20.1045
15.4665
11.1385
20.1058
15.4682
11.1418
7.91162
20.1073
15.4702
11.1465
7.91207
-0.103207
20.109
15.4725
11.1539
7.91344
0.160749
-0.343603
0.266813
20.1112
15.4753
11.1652
7.91639
0.467412
0.387917
-0.27885
0.197553
-0.0238884
20.114
15.4791
11.1818
7.92219
0.826033
0.541095
0.0385197
-0.176641
0.201551
-0.0523193
0.0184871
20.1176
15.4843
11.2054
7.93312
1.24809
0.721276
0.121414
0.051553
-0.125845
0.196162
-0.0350876
0.00501385
-0.00396106
20.1222
15.4915
11.2377
7.9524
1.73227
0.936155
0.222232
0.0957139
0.0122024
0.179519
-0.0955446
-0.0206872
0.0127828
-0.0102298
0.0048645
20.128
15.5014
11.2801
7.98395
2.26968
1.18978
0.347167
0.149563
0.0343973
0.0124268
-0.0155727
0.168371
-0.0660257
0.0203613
-0.00628666
0.00242939
0.00202101
20.1351
15.5146
11.3333
8.03164
2.84303
1.48291
0.50045
0.21668
0.0619328
0.0229374
0.0053457
0.0238355
-0.00876323
0.152811
-0.0361507
-0.00289992
0.00448926
0.00124509
0.00317924
15.5313
11.3968
8.09857
3.42708
1.81241
0.683635
0.299773
0.09685
0.0362138
0.0100564
0.00459896
-0.00119594
0.0267645
0.000536055
0.119593
-0.0174286
0.00587635
0.00225685
0.00303883
0.00234511
15.5513
11.4691
8.1853
3.99249
2.16701
0.891854
0.397402
0.13922
0.0526965
0.0159551
0.00660747
0.00296514
0.00598648
-0.000648601
0.0258959
0.000468536
0.0618022
-0.0135549
0.00248646
0.00345044
0.00240578
0.00330318
15.5737
11.5469
8.29082
4.51821
2.53657
1.11954
0.50739
0.188334
0.072518
0.0233371
0.00918772
0.00385878
0.00359805
0.00215462
0.00552777
-0.00213903
0.019413
-0.00653755
0.015726
-0.0114107
0.00332235
0.0024858
0.00335662
0.00461678
20.1013
20.1023
15.4636
20.1035
15.465
11.137
20.1048
15.4666
11.1401
7.90892
20.1063
15.4685
11.1447
7.90886
-0.105608
20.1081
15.4707
11.152
7.90967
0.15744
-0.346818
0.262768
20.1104
15.4736
11.1632
7.91203
0.462889
0.382467
-0.283529
0.192144
-0.026196
20.1133
15.4774
11.1797
7.91727
0.819846
0.533914
0.0350871
-0.182842
0.19423
-0.0556162
0.0164791
20.117
15.4827
11.2034
7.92771
1.23958
0.712008
0.116438
0.0488441
-0.133468
0.186947
-0.0399476
0.00239911
-0.00472314
20.1218
15.4901
11.2357
7.94668
1.72068
0.924474
0.215206
0.0920575
0.0108663
0.169144
-0.104982
-0.0271996
0.0091487
-0.0114974
0.00432702
20.1277
15.5002
11.2784
7.97819
2.25438
1.17528
0.33742
0.144509
0.0322251
0.0115188
-0.02325
0.157504
-0.0775974
0.0158589
-0.00837447
0.00156132
0.00165281
20.1349
15.5136
11.3319
8.02632
2.82502
1.46575
0.487513
0.209662
0.0585654
0.0214651
0.00475721
0.0192386
-0.0173462
0.14357
-0.0474985
-0.00542699
0.00316327
0.000678263
0.00294987
15.5306
11.396
8.09403
3.40966
1.79383
0.66785
0.290157
0.0917371
0.0338227
0.00907222
0.00421618
-0.00367484
0.0220807
-0.00776124
0.116121
-0.0225397
0.00455196
0.00148259
0.0026729
0.00219721
15.5509
11.4688
8.18218
3.98135
2.15252
0.877765
0.387469
0.133188
0.0495414
0.0145195
0.0060075
0.00272199
0.00532315
-0.00188785
0.0244689
-1.99567e-05
0.0661739
-0.0139267
0.00199611
0.00306263
0.00215831
0.0032
15.5734
11.5471
8.28833
4.51556
2.52835
1.11076
0.499304
0.182255
0.0686526
0.0212911
0.00824376
0.00345818
0.00343226
0.00201767
0.0054693
-0.00188784
0.0206332
-0.00366137
0.0180646
-0.0107885
0.00315533
0.00231816
0.0032331
0.00454554
11.6269
8.4079
4.99764
2.90982
1.36083
0.62342
0.238004
0.0909274
0.0294742
0.011043
0.00439822
0.00375724
0.00466412
0.00303051
0.00181452
0.0046299
-0.00434978
0.012483
-0.00716611
-0.00194409
-0.00561102
0.0022748
0.003268
0.00457321
0.00669317
20.1004
20.1013
15.4624
20.1025
15.4636
11.1357
20.1037
15.4651
11.1386
7.90667
20.1053
15.4669
11.143
7.90616
-0.107316
20.1072
15.469
11.1502
7.90646
0.155044
-0.34912
0.259811
20.1095
15.4719
11.1612
7.90827
0.4596
0.378415
-0.286928
0.18814
-0.0277309
20.1125
15.4757
11.1777
7.91292
0.815367
0.528472
0.0327225
-0.187385
0.18871
-0.0578639
0.0149743
20.1163
15.4811
11.2013
7.92281
1.23351
0.704861
0.112928
0.0467885
-0.139118
0.179831
-0.0433436
0.00042364
-0.00509359
20.1212
15.4885
11.2337
7.94131
1.71246
0.915298
0.210138
0.0892755
0.0100599
0.16062
-0.112087
-0.0319095
0.00639331
-0.0122422
0.00402519
20.1272
15.4988
11.2765
7.97257
2.2435
1.16382
0.330319
0.140755
0.0308231
0.0109571
-0.0290782
0.147833
-0.0863047
0.0123105
-0.00974355
0.00103059
0.00141626
20.1345
15.5125
11.3303
8.02076
2.81141
1.45184
0.477852
0.204514
0.056318
0.0205202
0.00437833
0.0152482
-0.0243437
0.133612
-0.0569975
-0.00735512
0.00226698
0.000314724
0.00280043
15.5297
11.3948
8.08902
3.39498
1.77819
0.655614
0.283239
0.0883524
0.0323247
0.00847083
0.00398304
-0.00585428
0.0178724
-0.01526
0.109358
-0.0281407
0.00346993
0.000943313
0.00244836
0.00210478
15.5502
11.4681
8.1781
3.96887
2.13713
0.864123
0.37869
0.128356
0.047219
0.013545
0.00562493
0.00257398
0.00428471
-0.00412227
0.0208153
-0.00424814
0.0668438
-0.0149454
0.00145755
0.00276282
0.00201669
0.00313401
15.573
11.5469
8.28563
4.50868
2.51765
1.10004
0.491277
0.177173
0.0658945
0.0200002
0.00769377
0.00323386
0.00333543
0.00174412
0.00499605
-0.00262086
0.0209074
-0.00132457
0.0206786
-0.0107265
0.00296725
0.00217266
0.00313522
0.00449543
11.6271
8.40591
4.99678
2.90452
1.35527
0.618001
0.233739
0.0880517
0.0278635
0.0102596
0.00405213
0.00360891
0.00459483
0.00298204
0.00179376
0.00480207
-0.00364783
0.0142752
-0.00465905
-0.000395208
-0.00531509
0.00221384
0.0032056
0.00451994
0.00665884
8.53172
5.42471
3.28486
1.62269
0.75642
0.297061
0.11333
0.0370645
0.0133612
0.00507139
0.00395001
0.00472439
0.00670992
0.00216888
0.00290108
0.00146409
0.00344924
-0.00606976
0.00758949
-0.00409335
-0.00240364
0.00095128
0.00319717
0.00454247
0.00667804
0.00860005
20.0995
20.1004
15.4613
20.1015
15.4624
11.1345
20.1027
15.4637
11.1373
7.90483
20.1043
15.4653
11.1415
7.90391
-0.108505
20.1062
15.4674
11.1485
7.90376
0.153331
-0.350741
0.257682
20.1086
15.4702
11.1594
7.90505
0.45721
0.375446
-0.289386
0.185221
-0.0287115
20.1116
15.474
11.1758
7.90915
0.812097
0.524416
0.0311387
-0.190722
0.184619
-0.0593482
0.0138787
20.1155
15.4793
11.1993
7.91847
1.22909
0.699431
0.110494
0.0452443
-0.14334
0.174444
-0.0456695
-0.0010515
-0.00517625
20.1205
15.4869
11.2317
7.93644
1.70655
0.908202
0.20654
0.0871603
0.00965044
0.153916
-0.117454
-0.0352276
0.00431551
-0.0125955
0.00389877
20.1267
15.4973
11.2745
7.96727
2.23567
1.15478
0.325158
0.137892
0.0299587
0.0106338
-0.0333801
0.139709
-0.0929911
0.00956359
-0.0105759
0.000734901
0.00126929
20.1341
15.5112
11.3285
8.01529
2.80143
1.44073
0.470715
0.200661
0.054844
0.0199259
0.00413293
0.0120217
-0.0297001
0.124467
-0.0645958
-0.0086977
0.00168998
8.11451e-05
0.00270078
15.5286
11.3934
8.08376
3.38328
1.76513
0.646186
0.278037
0.0860347
0.0313419
0.00807753
0.00382959
-0.00759857
0.0141869
-0.0216006
0.100841
-0.0339147
0.00265316
0.000572866
0.00230118
0.0020435
15.5494
11.4671
8.17353
3.95741
2.12335
0.852882
0.372008
0.125001
0.0457074
0.012933
0.00538714
0.00248051
0.00337152
-0.00613724
0.0171538
-0.00952951
0.0640338
-0.0161922
0.00101943
0.00255139
0.00192659
0.00308793
15.5724
11.5464
8.28208
4.50013
2.50539
1.08872
0.483542
0.172745
0.063692
0.0190522
0.00731519
0.00308654
0.00326992
0.00132861
0.00409714
-0.00437368
0.0191683
-0.00122431
0.0220627
-0.0110074
0.00275924
0.00205747
0.00307226
0.00445901
11.6269
8.40366
4.99269
2.89682
1.3474
0.611746
0.22961
0.085714
0.0267321
0.0097643
0.00384651
0.00351954
0.00454779
0.00287808
0.00160484
0.00456158
-0.00369814
0.0157444
-0.0021053
0.00083268
-0.00524404
0.00214216
0.00314726
0.00447241
0.00662889
8.53018
5.42463
3.28143
1.61923
0.752881
0.294199
0.111296
0.0358629
0.0127428
0.00478385
0.00382161
0.0046624
0.00667702
0.00215069
0.00289594
0.00153036
0.00378629
-0.00523984
0.00896941
-0.00276073
-0.00165276
0.00107123
0.00317431
0.00451356
0.00665009
0.0085813
5.7928
3.64592
1.89548
0.903864
0.365412
0.140034
0.0463119
0.0162285
0.0059125
0.00419057
0.00479744
0.00673126
0.00860318
0.00316317
0.00212289
0.00276414
0.00102472
0.00225485
-0.00584152
0.00513965
-0.000848266
0.00218557
0.00673158
0.00452111
0.00667019
0.00859764
0.00990638
20.0988
20.0996
15.4603
20.1006
15.4613
11.1335
20.1018
15.4624
11.1361
7.90333
20.1033
15.4639
11.1402
7.90207
-0.109307
20.1051
15.4659
11.147
7.90152
0.152132
-0.351852
0.256174
20.1075
15.4686
11.1578
7.90235
0.455492
0.373303
-0.291138
0.183125
-0.029298
20.1106
15.4723
11.174
7.90594
0.809709
0.521437
0.0301165
-0.193159
0.181629
-0.0602863
0.0131117
20.1146
15.4776
11.1974
7.91471
1.22585
0.695372
0.10885
0.0441157
-0.146485
0.170441
-0.0472166
-0.00212057
-0.00503163
20.1197
15.4852
11.2297
7.93212
1.70222
0.902791
0.204026
0.0855667
0.00953319
0.148781
-0.121522
-0.0375154
0.0027667
-0.0126613
0.00390311
20.126
15.4957
11.2725
7.96245
2.22996
1.14777
0.321461
0.135708
0.0294976
0.0104881
-0.0364624
0.13323
-0.0981276
0.00747425
-0.0109986
0.000614459
0.00119174
20.1335
15.5097
11.3266
8.01013
2.79408
1.4319
0.465468
0.197708
0.0539135
0.0195737
0.00397842
0.00946382
-0.0337155
0.116646
-0.0706436
-0.00954569
0.00135075
-6.30495e-05
0.00263386
15.5274
11.3916
8.07854
3.37435
1.75452
0.63908
0.274093
0.0844828
0.0307114
0.00781995
0.00372657
-0.00883558
0.0111752
-0.0265696
0.0924808
-0.0393733
0.00208856
0.000325309
0.00220299
0.00200406
15.5483
11.4657
8.16867
3.94769
2.11141
0.843873
0.366818
0.122628
0.0446875
0.0125247
0.00522828
0.00241802
0.00263465
-0.00777676
0.0137764
-0.014719
0.0586502
-0.0179143
0.000686694
0.00240348
0.00186659
0.00305524
15.5716
11.5455
8.27802
4.49152
2.49368
1.07874
0.477253
0.169484
0.0621861
0.0184341
0.00707356
0.00299192
0.00322391
0.000963669
0.00326775
-0.00612594
0.016626
-0.00297545
0.0220315
-0.0112458
0.00258907
0.00197435
0.00302763
0.00443386
11.6264
8.40066
4.987
2.88739
1.33838
0.60518
0.225691
0.0836858
0.0258311
0.009396
0.00370132
0.00345506
0.00451222
0.00271938
0.00125356
0.00387917
-0.00465842
0.0159798
-0.000104039
0.00150352
-0.00538484
0.00206233
0.00309672
0.00443767
0.00660623
8.52835
5.42222
3.27599
1.61362
0.748163
0.290965
0.109383
0.034901
0.0123077
0.00459868
0.00373968
0.00461918
0.00664908
0.00211009
0.00282533
0.00143389
0.00382572
-0.00480911
0.0104833
-0.00123697
-0.00100564
0.00110642
0.00314473
0.00448315
0.00662137
0.008561
5.79298
3.64368
1.89332
0.901568
0.36355
0.138657
0.0454604
0.0157656
0.00568525
0.00408358
0.00474373
0.00670199
0.00858585
0.00315599
0.00212012
0.00279118
0.00115129
0.00260462
-0.00521471
0.00588066
-0.000279587
0.00246586
0.00677148
0.00450685
0.00665101
0.00857962
0.00989585
3.9785
2.16733
1.06118
0.442011
0.171052
0.0573528
0.0197227
0.00695286
0.00449114
0.00488875
0.00675734
0.00860723
0.00990326
0.00451216
0.00314844
0.00207645
0.00258725
0.00060434
0.00141274
-0.00286114
0.00418307
0.00274325
0.00721266
0.0145165
0.00667035
0.00860033
0.00990968
0.0104709
20.0982
20.0989
15.4595
20.0998
15.4603
11.1327
20.1009
15.4613
11.1352
7.90212
20.1023
15.4627
11.1391
7.90057
-0.109825
20.1041
15.4645
11.1457
7.89967
0.151316
-0.352585
0.255124
20.1065
15.467
11.1563
7.90011
0.45428
0.371779
-0.29236
0.181646
-0.0296095
20.1096
15.4707
11.1723
7.90324
0.807982
0.519279
0.029495
-0.194912
0.179475
-0.0608372
0.0126057
20.1136
15.4759
11.1955
7.9115
1.22346
0.69238
0.107777
0.0433209
-0.148805
0.167512
-0.0482053
-0.00286427
-0.00473937
20.1188
15.4835
11.2278
7.92837
1.69901
0.898731
0.202311
0.0843963
0.00964643
0.144938
-0.124583
-0.0390467
0.00164379
-0.0125006
0.00397835
20.1252
15.494
11.2705
7.95818
2.22574
1.14239
0.318854
0.134057
0.0293346
0.0104748
-0.038618
0.128221
-0.102069
0.00590996
-0.0111173
0.00062464
0.00117009
20.1328
15.5081
11.3246
8.00541
2.78863
1.42499
0.46167
0.195446
0.0533924
0.0194017
0.00389426
0.00748227
-0.0366364
0.110335
-0.0754124
-0.00999323
0.00119329
-0.000137912
0.00259101
15.5259
11.3898
8.07357
3.36756
1.74599
0.633775
0.271047
0.0834768
0.0303259
0.00765508
0.00365677
-0.00962406
0.00875233
-0.03036
0.0851129
-0.0442165
0.00173758
0.000167908
0.00213739
0.00198144
15.5471
11.4641
8.16378
3.93989
2.10147
0.836898
0.362808
0.120996
0.0440173
0.0122536
0.00512061
0.00237749
0.00210737
-0.00894609
0.0109225
-0.0191089
0.0523402
-0.0201522
0.000449655
0.0023013
0.00182799
0.00303436
15.5706
11.5442
8.27364
4.48369
2.48309
1.07035
0.47217
0.167084
0.0611343
0.0180113
0.00690908
0.00292784
0.00319111
0.00066587
0.00257539
-0.0076265
0.0138291
-0.00584412
0.02044
-0.0114679
0.0024579
0.00191583
0.00299581
0.00442127
11.6256
8.39715
4.98069
2.87777
1.32982
0.599439
0.2226
0.082213
0.0252147
0.00915228
0.00360588
0.00340931
0.00448762
0.00257893
0.00092766
0.00316996
-0.00589606
0.0151619
0.000936443
0.00186388
-0.00554924
0.00199626
0.00305704
0.00441345
0.00659603
8.52586
5.41846
3.26892
1.60667
0.742784
0.287623
0.107576
0.0340692
0.0119575
0.00445796
0.0036768
0.00458498
0.00662755
0.00204906
0.0026924
0.00117138
0.00346649
-0.0049659
0.0116474
0.000322838
-0.000631035
0.00104134
0.00310965
0.00445542
0.00659965
0.00854812
5.79152
3.63987
1.88939
0.898094
0.361101
0.137145
0.0446703
0.0153946
0.00552258
0.00400977
0.00470441
0.00667672
0.00856723
0.00313841
0.00209185
0.00275617
0.00115985
0.00281841
-0.00469764
0.00685679
0.00041742
0.00276279
0.00677999
0.00448832
0.00662981
0.00855959
0.00988181
3.97701
2.16596
1.05967
0.440813
0.170145
0.0567753
0.0193932
0.00678252
0.00440622
0.00484393
0.0067321
0.00859213
0.00989409
0.00450261
0.00314675
0.00208526
0.0026356
0.000730517
0.0016591
-0.00250104
0.00451353
0.0029737
0.00730053
0.0145272
0.00665431
0.00858303
0.00989711
0.0104637
2.42591
1.22199
0.524703
0.205971
0.0702022
0.0238966
0.00822067
0.00486289
0.00500301
0.00679029
0.00861259
0.00989938
0.0104668
0.00667366
0.00450886
0.00313317
0.00201859
0.00240464
0.000366296
0.00129624
0.000988051
0.00478317
0.00723944
0.0147329
0.0240927
0.00861098
0.00991667
0.010475
0.0106023
20.0976
20.0982
15.4588
20.099
15.4595
11.132
20.1001
15.4604
11.1343
7.90115
20.1014
15.4616
11.1381
7.89936
-0.11014
20.1032
15.4633
11.1445
7.89817
0.150783
-0.353043
0.254408
20.1055
15.4657
11.1549
7.89826
0.453449
0.370714
-0.293186
0.180621
-0.0297344
20.1086
15.4692
11.1708
7.901
0.806752
0.517739
0.0291542
-0.196146
0.177949
-0.0611193
0.0123008
20.1126
15.4743
11.1939
7.9088
1.22173
0.690205
0.107112
0.0427915
-0.150487
0.165402
-0.048797
-0.00335028
-0.0043631
20.1178
15.4818
11.2259
7.92517
1.69664
0.895725
0.201176
0.0835664
0.00991096
0.142112
-0.126859
-0.0400318
0.000860135
-0.0121937
0.0041033
20.1243
15.4923
11.2686
7.95446
2.22258
1.13833
0.317055
0.132837
0.0294062
0.0105352
-0.040077
0.124448
-0.105062
0.0047726
-0.0109972
0.000705449
0.00119667
20.132
15.5064
11.3226
8.0012
2.78454
1.41967
0.458959
0.193727
0.0531756
0.0193645
0.0038667
0.00597746
-0.0387062
0.105419
-0.0791405
-0.0101361
0.00117302
-0.000156921
0.00256668
15.5244
11.3878
8.069
3.3624
1.73925
0.629879
0.268699
0.0828852
0.0301235
0.0075619
0.00361143
-0.0100384
0.00684941
-0.0331598
0.0790578
-0.0483017
0.00156169
8.1865e-05
0.00209581
0.00197319
15.5457
11.4623
8.15908
3.93373
2.09335
0.831583
0.359676
0.119907
0.0435934
0.0120768
0.00504686
0.00235384
0.00177159
-0.00969254
0.00858126
-0.0225911
0.0462389
-0.0227229
0.00029226
0.00223176
0.00180604
0.00302462
15.5695
11.5427
8.26917
4.47702
2.474
1.06364
0.46814
0.16538
0.0604223
0.0177252
0.00679619
0.00288581
0.00317006
0.000444999
0.00207055
-0.00873554
0.0112181
-0.00892946
0.0176716
-0.011828
0.00236178
0.00187703
0.00297547
0.00442388
11.6244
8.39329
4.97451
2.86867
1.32225
0.594575
0.220216
0.0811404
0.0247793
0.00898228
0.00354018
0.00337645
0.00447532
0.00246266
0.000650358
0.00254089
-0.00710559
0.0135503
0.000821849
0.00187041
-0.00563456
0.00194572
0.00302754
0.00440137
0.00660433
8.52289
5.41389
3.26126
1.59958
0.737709
0.28478
0.10617
0.0334653
0.0117145
0.00436243
0.0036315
0.00456127
0.00661813
0.00199477
0.00256787
0.000897517
0.00296903
-0.00546622
0.0122844
0.00175071
-0.000372185
0.000934263
0.00307872
0.00443487
0.00658995
0.00855237
5.789
3.63465
1.88417
0.893815
0.358351
0.135593
0.0439275
0.0150708
0.00538926
0.00394944
0.0046719
0.00665687
0.00855566
0.00311141
0.00204063
0.00265725
0.00102417
0.00276351
-0.00440038
0.00787694
0.00118318
0.00298094
0.00674933
0.00446814
0.00661239
0.00854707
0.00987553
3.97433
2.16322
1.05714
0.439006
0.168989
0.0561491
0.0190873
0.00664383
0.00434136
0.00480886
0.00670963
0.00857584
0.0098815
0.00448855
0.00313396
0.00207008
0.00264033
0.00080247
0.00187436
-0.00211448
0.00499831
0.00325513
0.00740901
0.0145233
0.00663712
0.00856526
0.00988274
0.0104527
2.42502
1.22097
0.523925
0.205379
0.0698221
0.0236717
0.00809926
0.00479886
0.00496737
0.00676935
0.00859987
0.0098917
0.0104608
0.00665656
0.00450067
0.00313545
0.00203521
0.00245052
0.000444238
0.00144567
0.0011634
0.00492895
0.00733272
0.0147577
0.0240926
0.00859012
0.0099007
0.0104654
0.0105952
1.37889
0.610274
0.243877
0.0847021
0.0287576
0.00973504
0.0053159
0.00514451
0.00683196
0.00861995
0.00989522
0.0104618
0.0106
0.00862058
0.00667579
0.00450603
0.00311343
0.00195942
0.00225233
0.000393338
0.00215164
0.00360572
0.00756223
0.0147749
0.0242326
0.0311893
0.00993151
0.0104819
0.0106046
0.0105895
20.0971
20.0977
15.4582
20.0984
15.4588
11.1315
20.0993
15.4596
11.1337
7.90039
20.1006
15.4606
11.1373
7.89839
-0.110317
20.1023
15.4622
11.1436
7.89696
0.150452
-0.353307
0.253932
20.1046
15.4644
11.1538
7.89676
0.452898
0.369985
-0.293721
0.179927
-0.0297381
20.1076
15.4678
11.1695
7.89915
0.805899
0.516659
0.0290052
-0.196989
0.176885
-0.0612199
0.0121442
20.1116
15.4728
11.1924
7.90656
1.22048
0.688645
0.106735
0.0424672
-0.151676
0.163907
-0.0491119
-0.00363829
-0.00395088
20.1168
15.4802
11.2243
7.92248
1.69489
0.893529
0.200458
0.0830075
0.0102636
0.140071
-0.128518
-0.0406259
0.000343962
-0.0118044
0.00425773
20.1233
15.4906
11.2668
7.95127
2.22022
1.13531
0.315845
0.131965
0.0296341
0.0106476
-0.0410241
0.121659
-0.107302
0.00397646
-0.0107228
0.000835822
0.00126241
20.1311
15.5048
11.3207
7.99753
2.78144
1.41563
0.457063
0.192449
0.053198
0.0194047
0.00388787
0.00487284
-0.0401227
0.101692
-0.0820109
-0.0100383
0.00123078
-0.000127823
0.00255709
15.5227
11.3859
8.0649
3.35845
1.73402
0.627059
0.266903
0.082604
0.0300582
0.00752629
0.00358493
-0.0101647
0.00538811
-0.03517
0.0742837
-0.0516335
0.00152394
5.38157e-05
0.00207271
0.00197746
15.5442
11.4604
8.15472
3.92889
2.08686
0.827608
0.357239
0.119235
0.0433549
0.011973
0.00499812
0.00234462
0.00160035
-0.0100824
0.00671783
-0.0252333
0.0409421
-0.0253492
0.000202513
0.00218693
0.00179836
0.00302568
15.5681
11.541
8.2648
4.4715
2.46641
1.05838
0.46494
0.164204
0.0599554
0.0175346
0.00671786
0.00286077
0.00316006
0.000293958
0.00174528
-0.00946016
0.00896714
-0.0117206
0.0143054
-0.0124186
0.00229397
0.00185439
0.00296603
0.00444403
11.623
8.38927
4.96891
2.86057
1.31593
0.590592
0.218458
0.0803881
0.0244775
0.00886364
0.00349649
0.00335517
0.00447799
0.00237402
0.000439412
0.00206158
-0.00808953
0.0115801
-0.000156596
0.00145434
-0.00564162
0.00191059
0.00300817
0.00440415
0.0066371
8.51954
5.40906
3.25365
1.59295
0.733181
0.282467
0.105094
0.0330218
0.0115398
0.00429522
0.0035986
0.00454943
0.00662682
0.0019506
0.00246029
0.000649788
0.00246348
-0.00613589
0.0122125
0.00274599
-0.000160752
0.000849633
0.00305419
0.00442466
0.00659837
0.00858335
5.78564
3.62867
1.87846
0.889466
0.355818
0.134287
0.0433496
0.0148328
0.00529477
0.00390495
0.00464922
0.00664862
0.00856078
0.00308615
0.00199265
0.00255309
0.000838869
0.0025406
-0.00426446
0.00884825
0.00201044
0.00314279
0.00669038
0.00445248
0.00660519
0.00855141
0.00988841
3.97049
2.15935
1.05381
0.436809
0.167698
0.0555086
0.0187974
0.00652099
0.00428474
0.00477853
0.00669171
0.00856615
0.00987652
0.00447193
0.00311112
0.00203167
0.00258909
0.000787147
0.00195878
-0.00173751
0.00557635
0.00356219
0.00750859
0.0145036
0.00662324
0.00855509
0.00987643
0.0104478
2.42309
1.21912
0.522608
0.204515
0.0693415
0.023428
0.00798494
0.00474354
0.00493696
0.00674995
0.00858609
0.00988113
0.010451
0.00664016
0.00448822
0.00312775
0.00203459
0.00247849
0.000510792
0.00160324
0.00138957
0.00514296
0.00744888
0.0147925
0.0240836
0.00857156
0.00988564
0.0104538
0.0105841
1.37817
0.609754
0.243484
0.0844543
0.0286082
0.00965211
0.0052699
0.00511761
0.00681545
0.00860973
0.00988907
0.0104568
0.0105938
0.00859475
0.00665776
0.00449878
0.00311796
0.00197511
0.00227877
0.000432199
0.00223585
0.00369225
0.00763313
0.014806
0.0242298
0.0311821
0.00990865
0.0104683
0.0105961
0.0105813
0.694799
0.283351
0.100485
0.0342482
0.0114986
0.00585695
0.00531709
0.00688411
0.00863002
0.00989085
0.0104561
0.0105972
0.0105894
0.00994375
0.00862565
0.00667817
0.00450286
0.00308883
0.00190005
0.00210037
0.000768691
0.00305147
0.00647625
0.0145147
0.0243554
0.0313303
0.0352486
0.0104956
0.0106095
0.0105899
0.0105596
20.0967
20.0972
15.4578
20.0978
15.4582
11.131
20.0987
15.4589
11.1331
7.89979
20.0999
15.4598
11.1366
7.89763
-0.110402
20.1015
15.4612
11.1427
7.896
0.150261
-0.35344
0.253625
20.1037
15.4633
11.1528
7.89555
0.452549
0.369498
-0.294049
0.17947
-0.0296686
20.1066
15.4665
11.1683
7.89765
0.805324
0.515914
0.0289819
-0.197543
0.17616
-0.0612036
0.012091
20.1106
15.4714
11.1911
7.90471
1.2196
0.687545
0.106555
0.0422946
-0.152491
0.162867
-0.0492389
-0.00378084
-0.00353916
20.1158
15.4787
11.2228
7.92023
1.69362
0.891945
0.200037
0.0826585
0.010656
0.138624
-0.129696
-0.0409457
3.28838e-05
-0.0113808
0.00443209
20.1223
15.489
11.2651
7.94859
2.21846
1.13309
0.315064
0.131371
0.0299554
0.0107914
-0.0415992
0.119636
-0.108943
0.00344998
-0.0103583
0.000995451
0.00135893
20.1302
15.5031
11.3189
7.99438
2.77908
1.4126
0.455766
0.191527
0.0533822
0.0195
0.00394867
0.00409464
-0.0410513
0.0989238
-0.0841799
-0.00978263
0.00134552
-5.97115e-05
0.0025598
15.5211
11.384
8.06131
3.35541
1.73001
0.625055
0.265557
0.082567
0.0300745
0.00754009
0.00357345
-0.0100605
0.00430684
-0.0365626
0.0706313
-0.0542763
0.00156864
7.55993e-05
0.00206431
0.00199259
15.5426
11.4585
8.15077
3.9251
2.08175
0.824682
0.355359
0.118878
0.043256
0.0119278
0.00496867
0.00234796
0.00156387
-0.0101958
0.00527406
-0.027172
0.0366188
-0.0277928
0.000169737
0.00216135
0.00180309
0.00303679
15.5667
11.5391
8.2607
4.46701
2.46024
1.05437
0.462419
0.163442
0.059675
0.0174181
0.00666512
0.00285021
0.00316079
0.000205774
0.00157865
-0.00984753
0.00712711
-0.014016
0.010885
-0.0132364
0.0022492
0.0018458
0.00296719
0.00448336
11.6213
8.38528
4.96403
2.85362
1.31083
0.587358
0.217198
0.079875
0.0242712
0.00877997
0.00346981
0.00334482
0.00449796
0.00230973
0.000292539
0.0017432
-0.00877831
0.0096156
-0.0015824
0.000625739
-0.00562252
0.00188955
0.00299882
0.00442419
0.00669959
8.51599
5.40439
3.24661
1.58716
0.729324
0.280682
0.104308
0.0327047
0.011415
0.00424972
0.00357708
0.00455219
0.00665958
0.00191902
0.00237612
0.000452813
0.00203803
-0.00681235
0.0114849
0.0031758
-1.19981e-05
0.000828392
0.00303748
0.00442789
0.00663091
0.00865
5.78185
3.62245
1.87281
0.885367
0.353633
0.133232
0.0429049
0.0146548
0.00522641
0.00387217
0.00463794