/*--------------------------------*- C++ -*----------------------------------*\
  =========                 |
  \\      /  F ield         | OpenFOAM: The Open Source CFD Toolbox
   \\    /   O peration     | Website:  https://openfoam.org
    \\  /    A nd           | Version:  7
     \\/     M anipulation  |
\*---------------------------------------------------------------------------*/
FoamFile
{
    version     2.0;
    format      ascii;
    class       volVectorField;
    location    "300";
    object      U;
}
// * * * * * * * * * * * * * * * * * * * * * * * * * * * * * * * * * * * * * //

dimensions      [0 1 -1 0 0 0 0];

internalField   nonuniform List<vector> 
43144
(
(0.62851 5.47739e-06 -0.000126432)
(0.628526 3.0556e-05 -0.000127329)
(0.628508 5.33383e-06 -0.000405411)
(0.651823 0.000104778 -0.000129434)
(0.628548 6.77624e-05 -0.000127821)
(0.628523 3.03337e-05 -0.000408261)
(0.651877 0.000260725 -0.000127557)
(0.628502 5.01888e-06 -0.000738267)
(0.651758 0.00010508 -0.000441112)
(0.649415 0.000303414 -0.0021737)
(0.628581 0.000104492 -0.000128105)
(0.628545 6.76488e-05 -0.000409812)
(0.651954 0.00036776 -0.000126756)
(0.628518 2.98444e-05 -0.000743286)
(0.651811 0.000261162 -0.00043512)
(0.649689 0.0007428 -0.00221894)
(0.628489 4.4331e-06 -0.00113753)
(0.651621 0.000105752 -0.000886612)
(0.649435 0.000296015 -0.00689595)
(0.954698 0.00134449 -0.00038776)
(0.628622 0.000143045 -0.000128359)
(0.628579 0.000104421 -0.000410738)
(0.652041 0.000462946 -0.000126944)
(0.62854 6.73952e-05 -0.000746016)
(0.651887 0.000367868 -0.000432675)
(0.649923 0.000909113 -0.00224215)
(0.628505 2.89312e-05 -0.00114475)
(0.651671 0.000262119 -0.000876062)
(0.649703 0.000731666 -0.00703511)
(0.9631 0.00236085 -0.000599001)
(0.628463 3.47377e-06 -0.00160614)
(0.651365 0.000106994 -0.00149873)
(0.649446 0.000280671 -0.0122929)
(0.9499 0.00129457 -0.00168259)
(0.683977 0.072945 -0.772308)
(0.628671 0.000178704 -0.000128512)
(0.62862 0.000142997 -0.000411558)
(0.652133 0.00052516 -0.00012714)
(0.628573 0.00010426 -0.000747727)
(0.651973 0.000462909 -0.000433243)
(0.650227 0.000951187 -0.00225733)
(0.628527 6.69123e-05 -0.00114874)
(0.651745 0.000368094 -0.000872056)
(0.649936 0.000903411 -0.00710749)
(0.968008 0.00236837 -0.000622295)
(0.628479 2.74227e-05 -0.00161516)
(0.651409 0.000263861 -0.00148386)
(0.649707 0.000708218 -0.0125235)
(0.957997 0.00232833 -0.0020602)
(0.7097 0.0570446 -0.828394)
(0.628413 2.09921e-06 -0.00214376)
(0.650923 0.000108969 -0.00232931)
(0.649402 0.000254089 -0.0184204)
(0.939488 0.00122574 -0.00457684)
(0.703216 0.0459689 -0.772625)
(0.589533 0.126504 -0.795525)
(0.131569 0.0680277 -0.568735)
(0.628725 0.000210314 -0.000128614)
(0.628669 0.000178677 -0.000412061)
(0.652224 0.000564844 -0.000127669)
(0.628614 0.000142884 -0.000749222)
(0.652065 0.000525093 -0.000433891)
(0.650535 0.000940025 -0.00226701)
(0.62856 0.000103943 -0.00115135)
(0.651831 0.000462834 -0.000873037)
(0.650241 0.000947822 -0.00715535)
(0.970846 0.00248337 -0.00062731)
(0.628502 6.60882e-05 -0.00162033)
(0.651481 0.000368479 -0.00147855)
(0.64994 0.000891077 -0.0126476)
(0.96275 0.00236246 -0.00209808)
(0.714239 0.033483 -0.84479)
(0.62843 2.52206e-05 -0.00215354)
(0.650959 0.000266591 -0.00231156)
(0.649655 0.000666881 -0.0187291)
(0.946828 0.00228398 -0.00497157)
(0.715028 0.0462097 -0.821109)
(0.668101 0.0903368 -0.893373)
(0.135367 0.0502111 -0.617767)
(0.628323 4.09533e-07 -0.00274679)
(0.650215 0.000111639 -0.00343042)
(0.64922 0.000214071 -0.0250729)
(0.923155 0.00116233 -0.00926767)
(0.709538 0.0300179 -0.755741)
(0.13967 0.0449243 -0.568382)
(0.39378 0.090402 -0.616604)
(0.125121 0.110345 -0.591398)
(0.0809311 0.0529137 -0.335714)
(0.628782 0.000235825 -0.000128663)
(0.628723 0.0002103 -0.000412402)
(0.652311 0.000579798 -0.00012824)
(0.628663 0.000178611 -0.000750175)
(0.652155 0.000564743 -0.000435569)
(0.650845 0.000896276 -0.00227308)
(0.628602 0.000142662 -0.00115362)
(0.651921 0.000524945 -0.000874329)
(0.650549 0.000938074 -0.00718598)
(0.972557 0.00233927 -0.000624226)
(0.628535 0.000103389 -0.00162387)
(0.651564 0.00046267 -0.00148017)
(0.650244 0.000940421 -0.0127315)
(0.965555 0.00248281 -0.0021132)
(0.715483 0.0193317 -0.848206)
(0.628452 6.48204e-05 -0.00215957)
(0.651027 0.000369005 -0.00230569)
(0.649888 0.000868468 -0.0189044)
(0.951279 0.00235614 -0.00501196)
(0.717669 0.0274232 -0.837944)
(0.67882 0.0541072 -0.908352)
(0.132693 0.0306196 -0.630113)
(0.62834 2.24217e-05 -0.00275586)
(0.650241 0.000270211 -0.00341268)
(0.649466 0.000603094 -0.0254281)
(0.929403 0.00224349 -0.00957677)
(0.714114 0.0378361 -0.79684)
(0.139348 0.0418798 -0.609608)
(0.540728 0.128649 -0.780022)
(0.143677 0.0731775 -0.677823)
(0.0858035 0.0444134 -0.376115)
(0.628169 -1.31641e-06 -0.00340566)
(0.649146 0.000114579 -0.00483547)
(0.648773 0.000161497 -0.0319593)
(0.901036 0.00111721 -0.0160243)
(0.707128 0.0208304 -0.731078)
(0.152867 0.0297613 -0.561279)
(0.0800354 0.0370763 -0.342062)
(0.240985 0.0634967 -0.445867)
(0.10037 0.0763821 -0.547184)
(0.0905051 0.0807749 -0.335122)
(0.0209478 0.0345597 -0.189314)
(0.62884 0.000254123 -0.000128676)
(0.62878 0.000235819 -0.000412577)
(0.652392 0.00057484 -0.00012885)
(0.628717 0.000210262 -0.000750836)
(0.652243 0.000579701 -0.000437386)
(0.651131 0.000836277 -0.00227686)
(0.62865 0.000178477 -0.00115511)
(0.652012 0.000564525 -0.000877368)
(0.650858 0.000895151 -0.00720531)
(0.973623 0.00213304 -0.000624267)
(0.628576 0.00014227 -0.00162693)
(0.651654 0.000524637 -0.00148247)
(0.650552 0.00093374 -0.0127858)
(0.967254 0.00234069 -0.00210698)
(0.716167 0.0115241 -0.849377)
(0.628486 0.000102512 -0.00216389)
(0.651108 0.000462303 -0.00230843)
(0.650191 0.000926563 -0.0190268)
(0.954012 0.00248464 -0.00504173)
(0.718817 0.0161801 -0.842205)
(0.680129 0.0307465 -0.909855)
(0.129824 0.0188247 -0.631347)
(0.628363 6.30749e-05 -0.00276213)
(0.650302 0.000369495 -0.00340762)
(0.649699 0.000831519 -0.0256467)
(0.933419 0.00235398 -0.00961085)
(0.715607 0.0232942 -0.812726)
(0.13645 0.0256223 -0.622474)
(0.570077 0.0905234 -0.792998)
(0.141985 0.0459697 -0.688505)
(0.0846678 0.0296846 -0.387115)
(0.628187 1.93962e-05 -0.00341256)
(0.649161 0.000274037 -0.00482154)
(0.649014 0.000516202 -0.0323154)
(0.906014 0.00221537 -0.016238)
(0.708583 0.0310218 -0.764819)
(0.150317 0.0348485 -0.595635)
(0.0813433 0.0370161 -0.37616)
(0.419198 0.138118 -0.664316)
(0.145801 0.093436 -0.705705)
(0.107224 0.063679 -0.401774)
(0.0209185 0.0306272 -0.217287)
(0.627923 -2.67911e-06 -0.00410074)
(0.647622 0.000116932 -0.00654166)
(0.647886 0.000101554 -0.0387532)
(0.873698 0.00108917 -0.0250227)
(0.699259 0.0150846 -0.699797)
(0.17078 0.020419 -0.549348)
(0.0828249 0.0254886 -0.345875)
(0.021901 0.0251715 -0.193612)
(0.170956 0.0507042 -0.365757)
(0.0775341 0.049358 -0.490709)
(0.103209 0.0545312 -0.290304)
(0.0210894 0.049977 -0.186963)
(0.0124653 0.0195569 -0.0974815)
(0.628897 0.000264506 -0.000128663)
(0.628838 0.000254123 -0.000412636)
(0.652466 0.000553162 -0.000129412)
(0.628774 0.000235803 -0.000751201)
(0.652324 0.000574752 -0.00043932)
(0.651386 0.000766892 -0.00227912)
(0.628704 0.000210183 -0.00115617)
(0.652099 0.000579489 -0.000880662)
(0.651145 0.000835637 -0.00721737)
(0.974288 0.00185683 -0.00062488)
(0.628625 0.000178232 -0.00162902)
(0.651744 0.000564095 -0.00148724)
(0.650862 0.000892625 -0.0128203)
(0.968315 0.00213463 -0.00210915)
(0.716696 0.00712415 -0.849842)
(0.628527 0.00014164 -0.00216765)
(0.651195 0.000524021 -0.00231237)
(0.650499 0.00092554 -0.0191068)
(0.955686 0.00234575 -0.00503906)
(0.719586 0.00974842 -0.843818)
(0.68036 0.0181104 -0.910022)
(0.127873 0.0125452 -0.631625)
(0.628396 0.000101259 -0.00276688)
(0.650378 0.000461475 -0.00341233)
(0.65 0.000903269 -0.0258055)
(0.93603 0.00249087 -0.0096618)
(0.716636 0.0142258 -0.817626)
(0.133949 0.0159692 -0.62443)
(0.573417 0.0555605 -0.788585)
(0.138 0.0281846 -0.687946)
(0.0827868 0.0186757 -0.38814)
(0.62821 6.09557e-05 -0.00341828)
(0.649214 0.000369465 -0.00481914)
(0.649246 0.000776982 -0.0325609)
(0.909492 0.00235652 -0.0162743)
(0.70948 0.0202629 -0.779198)
(0.14739 0.0219349 -0.607946)
(0.0797876 0.0244341 -0.38731)
(0.46914 0.112777 -0.694921)
(0.15134 0.0699184 -0.716698)
(0.107514 0.0445284 -0.412556)
(0.0189613 0.0213991 -0.224471)
(0.62794 1.67432e-05 -0.00410453)
(0.647625 0.000276701 -0.0065349)
(0.648121 0.000411787 -0.0390635)
(0.877392 0.00219663 -0.0251839)
(0.699638 0.0250441 -0.726495)
(0.167446 0.028883 -0.577183)
(0.0819788 0.0305237 -0.374347)
(0.0210094 0.0256663 -0.217285)
(0.35496 0.135136 -0.604)
(0.140604 0.0920621 -0.721989)
(0.144975 0.0818614 -0.40527)
(0.0238171 0.0429396 -0.231446)
(0.0133899 0.0182326 -0.113947)
(0.627551 -3.30065e-06 -0.00479829)
(0.645561 0.000117639 -0.00849366)
(0.64634 4.29538e-05 -0.0450966)
(0.84203 0.001067 -0.0360999)
(0.68792 0.0109129 -0.660847)
(0.192893 0.0146214 -0.534189)
(0.0894162 0.0176292 -0.347611)
(0.0241817 0.0177908 -0.196746)
(0.012522 0.0146015 -0.100187)
(0.0668085 0.0388169 -0.458255)
(0.130273 0.042216 -0.320527)
(0.106032 0.0357343 -0.246106)
(0.0206765 0.0298911 -0.157423)
(0.0134026 0.0273556 -0.0951394)
(0.00343095 0.00955051 -0.0450905)
(0.62895 0.000266878 -0.000128633)
(0.628894 0.000264509 -0.000412608)
(0.65253 0.000519068 -0.000129902)
(0.628832 0.00025412 -0.000751357)
(0.652397 0.000553092 -0.000441102)
(0.651601 0.000692293 -0.00228042)
(0.628761 0.000235765 -0.00115679)
(0.65218 0.000574564 -0.00088414)
(0.651399 0.000766537 -0.00722465)
(0.974701 0.0015702 -0.000626175)
(0.628679 0.000210034 -0.00163053)
(0.65183 0.000579075 -0.00149238)
(0.651149 0.000834181 -0.012842)
(0.968977 0.00185842 -0.00211205)
(0.71711 0.00452567 -0.850061)
(0.628575 0.000177827 -0.00217032)
(0.651283 0.00056329 -0.00231939)
(0.650809 0.000887808 -0.0191584)
(0.956737 0.00213966 -0.00504785)
(0.720166 0.00608076 -0.844504)
(0.68063 0.0110487 -0.910022)
(0.1267 0.00874196 -0.631858)
(0.628437 0.000140721 -0.0027711)
(0.650462 0.000522813 -0.00341884)
(0.650309 0.000911563 -0.0259115)
(0.937658 0.00235606 -0.00967177)
(0.717418 0.0087037 -0.819599)
(0.132333 0.0106891 -0.625059)
(0.572742 0.0332123 -0.784853)
(0.134993 0.0187347 -0.68735)
(0.080958 0.0120372 -0.387765)
(0.628242 9.96606e-05 -0.00342293)
(0.649283 0.000459693 -0.004827)
(0.649544 0.000867624 -0.0327483)
(0.911915 0.00250031 -0.0163567)
(0.710389 0.0129314 -0.784575)
(0.145178 0.0140656 -0.610566)
(0.0780621 0.0153664 -0.388876)
(0.477253 0.0771186 -0.687795)
(0.146445 0.0473419 -0.711267)
(0.105184 0.0284522 -0.412371)
(0.0168933 0.0140406 -0.224733)
(0.627963 5.87425e-05 -0.00410895)
(0.647668 0.000368029 -0.00653709)
(0.64835 0.000704129 -0.0393132)
(0.880268 0.00235782 -0.0252438)
(0.700255 0.0176621 -0.739123)
(0.16467 0.0191709 -0.588397)
(0.0801993 0.020306 -0.38495)
(0.0191617 0.0174771 -0.22447)
(0.416121 0.119807 -0.651332)
(0.156233 0.0807111 -0.753675)
(0.152623 0.0681792 -0.42002)
(0.0216369 0.0318412 -0.238825)
(0.0127895 0.0135638 -0.118217)
(0.627568 1.51067e-05 -0.00479881)
(0.645555 0.00027642 -0.00849576)
(0.646568 0.000301633 -0.0453283)
(0.844569 0.00217315 -0.0362663)
(0.68803 0.0195726 -0.680946)
(0.189689 0.0236575 -0.556052)
(0.0875712 0.0249631 -0.370692)
(0.0227763 0.0211271 -0.216535)
(0.012684 0.0153599 -0.114201)
(0.136428 0.0894992 -0.726402)
(0.308626 0.129716 -0.562449)
(0.169303 0.0816296 -0.407496)
(0.0298937 0.0537876 -0.230222)
(0.0165396 0.0251374 -0.120581)
(0.00294026 0.00926017 -0.0534203)
(0.627028 -2.97362e-06 -0.00544878)
(0.642922 0.000115837 -0.0105727)
(0.643914 -5.02009e-06 -0.0506053)
(0.807212 0.00103559 -0.0486278)
(0.674066 0.00759082 -0.614138)
(0.218511 0.0106899 -0.515634)
(0.0995656 0.0124676 -0.347921)
(0.0280413 0.0124321 -0.198922)
(0.0132134 0.0105252 -0.102385)
(0.00372167 0.00724704 -0.0464144)
(0.103525 0.0276219 -0.219704)
(0.0597662 0.0328113 -0.437594)
(0.0857148 0.0323763 -0.269786)
(0.0194007 0.0176639 -0.129411)
(0.0144196 0.0152292 -0.077805)
(0.0031503 0.0130582 -0.0438216)
(0.0018583 0.004081 -0.0187633)
(0.628998 0.000261745 -0.00012859)
(0.628947 0.000266884 -0.000412526)
(0.652585 0.000476391 -0.0001303)
(0.628888 0.000264514 -0.000751351)
(0.652462 0.000519016 -0.000442652)
(0.651775 0.000615405 -0.0022811)
(0.628819 0.000254108 -0.00115709)
(0.652253 0.000552943 -0.000887335)
(0.651614 0.000692105 -0.00722885)
(0.974952 0.00129432 -0.000627366)
(0.628736 0.000235687 -0.00163146)
(0.651911 0.000574198 -0.00149774)
(0.651403 0.000765719 -0.0128552)
(0.969389 0.00157163 -0.00211642)
(0.717411 0.00296139 -0.850171)
(0.628629 0.000209779 -0.00217229)
(0.651369 0.00057831 -0.00232688)
(0.651095 0.00083139 -0.0191909)
(0.957394 0.00186315 -0.00505603)
(0.720593 0.00389007 -0.84484)
(0.680968 0.00693695 -0.910017)
(0.12603 0.00616226 -0.63208)
(0.628485 0.000177214 -0.00277423)
(0.650549 0.000561838 -0.00342885)
(0.650617 0.00087953 -0.0259806)
(0.938692 0.00214941 -0.00969393)
(0.71801 0.005488 -0.820468)
(0.131373 0.00747725 -0.625432)
(0.572315 0.0201637 -0.782987)
(0.133148 0.0129882 -0.687261)
(0.0793663 0.00789378 -0.387281)
(0.628283 0.000139505 -0.00342724)
(0.649363 0.000520524 -0.00483729)
(0.649851 0.000889747 -0.0328771)
(0.913471 0.00237068 -0.0163923)
(0.711142 0.00807628 -0.786858)
(0.143801 0.00949772 -0.611534)
(0.0765156 0.00989486 -0.388851)
(0.47588 0.0480447 -0.677083)
(0.14129 0.0322243 -0.707425)
(0.102514 0.0184559 -0.411134)
(0.0150332 0.00928623 -0.22399)
(0.627995 9.78644e-05 -0.0041129)
(0.647729 0.000456152 -0.00654939)
(0.648643 0.000817786 -0.0395157)
(0.882434 0.00250678 -0.0253711)
(0.70105 0.011858 -0.744761)
(0.162698 0.0128179 -0.591606)
(0.0785993 0.0129398 -0.38704)
(0.0174045 0.0113158 -0.225055)
(0.428124 0.0868521 -0.64603)
(0.153012 0.0617001 -0.74795)
(0.150799 0.0483289 -0.417515)
(0.0187232 0.0215352 -0.238398)
(0.0118584 0.00939016 -0.118382)
(0.627591 5.68494e-05 -0.00480142)
(0.645588 0.000363959 -0.00850388)
(0.646791 0.000616272 -0.0455582)
(0.846826 0.00234538 -0.0363742)
(0.688511 0.0151191 -0.691674)
(0.187207 0.016893 -0.565923)
(0.0857442 0.0171713 -0.380341)
(0.0210562 0.014226 -0.223336)
(0.0120115 0.0110468 -0.118426)
(0.157766 0.0842919 -0.775822)
(0.376357 0.122893 -0.621932)
(0.187024 0.0796839 -0.443353)
(0.0293586 0.0482759 -0.241256)
(0.0161537 0.01999 -0.125108)
(0.00214924 0.00721407 -0.0555973)
(0.627044 1.49351e-05 -0.00544654)
(0.64291 0.000271613 -0.0105833)
(0.644129 0.000200514 -0.0507484)
(0.808817 0.00212384 -0.0488445)
(0.674148 0.0146173 -0.628348)
(0.215892 0.0189545 -0.532104)
(0.0975044 0.0201878 -0.366066)
(0.02645 0.0171457 -0.214946)
(0.0128404 0.0126492 -0.114156)
(0.00318185 0.00783944 -0.0535334)
(0.176618 0.0783597 -0.402693)
(0.132193 0.0872778 -0.726391)
(0.246304 0.118536 -0.509622)
(0.0351615 0.0517137 -0.22687)
(0.0222644 0.030856 -0.117443)
(0.00284362 0.0126085 -0.0564629)
(0.00188783 0.00402815 -0.0223668)
(0.626341 -1.7327e-06 -0.00599055)
(0.639726 0.000111227 -0.0125993)
(0.640434 -3.61332e-05 -0.0548961)
(0.770727 0.000981727 -0.0615316)
(0.658137 0.00495938 -0.560668)
(0.246656 0.00774394 -0.493298)
(0.112821 0.00896012 -0.346362)
(0.0336553 0.00874477 -0.200538)
(0.0147011 0.00742804 -0.104142)
(0.00424892 0.0053003 -0.0475233)
(0.00191287 0.00312057 -0.0193456)
(0.0185099 0.0129385 -0.115164)
(0.100641 0.0231859 -0.203661)
(0.0507198 0.0256703 -0.410313)
(0.0388786 0.0210378 -0.202159)
(0.0143879 0.00861825 -0.0614054)
(0.00222468 0.00682946 -0.035436)
(0.00189488 0.00552177 -0.0181654)
(0.000471859 0.00157341 -0.00713724)
(0.62904 0.0002501 -0.000128544)
(0.628996 0.000261752 -0.0004124)
(0.65263 0.000428608 -0.000130612)
(0.628942 0.000266894 -0.000751242)
(0.652517 0.000476354 -0.000443904)
(0.651911 0.000538516 -0.00228141)
(0.628876 0.000264519 -0.00115714)
(0.652318 0.000518906 -0.0008901)
(0.651788 0.000615312 -0.00723109)
(0.975098 0.00104749 -0.000628297)
(0.628793 0.000254078 -0.00163196)
(0.651984 0.000552654 -0.00150264)
(0.651618 0.000691662 -0.0128629)
(0.969639 0.00129557 -0.00212017)
(0.717607 0.00198363 -0.850228)
(0.628686 0.000235547 -0.00217356)
(0.651449 0.000573529 -0.00233455)
(0.651349 0.000764142 -0.0192108)
(0.957803 0.00157576 -0.00506536)
(0.720886 0.00256138 -0.845016)
(0.681284 0.00448905 -0.910014)
(0.125632 0.00433641 -0.632235)
(0.628538 0.000209381 -0.00277661)
(0.650633 0.000576955 -0.00343937)
(0.650903 0.000826578 -0.0260245)
(0.939341 0.00187212 -0.00971231)
(0.718434 0.00353747 -0.820894)
(0.130824 0.00528746 -0.625718)
(0.57239 0.0125625 -0.782125)
(0.132096 0.00911023 -0.687359)
(0.0780558 0.00519139 -0.386871)
(0.628331 0.00017637 -0.00343061)
(0.649446 0.000559299 -0.00485123)
(0.650158 0.000866481 -0.0329626)
(0.914475 0.00216325 -0.0164376)
(0.711719 0.00515939 -0.7879)
(0.142989 0.00667903 -0.612051)
(0.0751997 0.00650029 -0.388543)
(0.474393 0.0295638 -0.670359)
(0.137901 0.0223196 -0.705882)
(0.100101 0.0120986 -0.410202)
(0.0134876 0.00626817 -0.223264)
(0.628035 0.000138057 -0.00411688)
(0.647803 0.000516408 -0.00656467)
(0.648946 0.000858375 -0.039661)
(0.883881 0.00238463 -0.025449)
(0.701751 0.00760657 -0.7473)
(0.161495 0.00877934 -0.592902)
(0.0772601 0.00836968 -0.387368)
(0.0158953 0.00741132 -0.224548)
(0.426614 0.0554098 -0.631833)
(0.146634 0.0440636 -0.739658)
(0.146721 0.0325408 -0.413717)
(0.0158962 0.0144911 -0.237066)
(0.0109083 0.00635559 -0.117876)
(0.627622 9.61296e-05 -0.00480419)
(0.64564 0.000449787 -0.00852159)
(0.647075 0.000754137 -0.0457591)
(0.848672 0.00249888 -0.0365601)
(0.689197 0.0107394 -0.697292)
(0.185465 0.0118907 -0.569581)
(0.0842499 0.0112792 -0.382916)
(0.0195512 0.00917121 -0.224257)
(0.0111915 0.00748556 -0.118741)
(0.156326 0.0676952 -0.772985)
(0.391723 0.0930762 -0.618726)
(0.188026 0.0635327 -0.444256)
(0.0254232 0.0366861 -0.239923)
(0.0149304 0.0143735 -0.124985)
(0.00139533 0.00526477 -0.055691)
(0.627066 5.56948e-05 -0.00544724)
(0.642934 0.000356002 -0.0105976)
(0.644342 0.000521077 -0.0509393)
(0.810485 0.00230279 -0.0490176)
(0.674545 0.0125251 -0.637102)
(0.213802 0.0147708 -0.540515)
(0.095765 0.0147306 -0.37456)
(0.0248773 0.0116925 -0.221116)
(0.0121247 0.00887063 -0.11814)
(0.00250612 0.00588113 -0.0556691)
(0.199908 0.0831233 -0.454831)
(0.15766 0.0864827 -0.789176)
(0.319634 0.123759 -0.583575)
(0.0385646 0.0557428 -0.252961)
(0.0234489 0.0299023 -0.12444)
(0.00177102 0.0105323 -0.0588216)
(0.00166354 0.00321772 -0.0233028)
(0.626356 1.63111e-05 -0.00598645)
(0.639711 0.000261553 -0.0126162)
(0.640629 0.000121036 -0.0549615)
(0.77165 0.00202837 -0.0618144)
(0.658235 0.0103444 -0.570017)
(0.244759 0.0147373 -0.505065)
(0.110967 0.0160183 -0.360075)
(0.0321322 0.0137335 -0.2131)
(0.0140331 0.0102165 -0.113707)
(0.00369819 0.00647162 -0.0535255)
(0.00184751 0.00341959 -0.0224354)
(0.0377545 0.0479235 -0.223293)
(0.179362 0.0751735 -0.396802)
(0.124291 0.0825003 -0.72034)
(0.160863 0.0954699 -0.43015)
(0.0263868 0.0286016 -0.111333)
(0.00223662 0.0151925 -0.0546081)
(0.00219236 0.0054478 -0.023577)
(0.000276226 0.00158023 -0.00854252)
(0.63607 0.000104175 -0.0143553)
(0.635846 -4.92913e-05 -0.0576361)
(0.734273 0.000898947 -0.0734444)
(0.640488 0.00300424 -0.502392)
(0.275986 0.00545711 -0.466928)
(0.12869 0.00640177 -0.342252)
(0.0411162 0.0062182 -0.201411)
(0.0171088 0.00521874 -0.105663)
(0.00507672 0.00377836 -0.0484387)
(0.00206816 0.00229815 -0.0198435)
(0.00053007 0.00120816 -0.00736015)
(0.0140701 0.00608297 -0.0525469)
(0.0180088 0.0106063 -0.10777)
(0.0954272 0.0183268 -0.184773)
(0.0386892 0.0164246 -0.361542)
(0.00723078 0.0106278 -0.127677)
(0.000948287 0.00368276 -0.0275832)
(0.00177138 0.0028126 -0.014543)
(0.000394365 0.00211663 -0.00690559)
(9.18793e-05 0.000578084 -0.00259399)
(0.629076 0.000233251 -0.000128496)
(0.629038 0.000250106 -0.000412261)
(0.652664 0.000378661 -0.000130839)
(0.62899 0.000261764 -0.000751047)
(0.652561 0.000428585 -0.000444884)
(0.652012 0.000463856 -0.00228148)
(0.628929 0.000266908 -0.00115702)
(0.652372 0.00047628 -0.000892327)
(0.651924 0.000538477 -0.00723211)
(0.975173 0.000835692 -0.000628883)
(0.62885 0.000264519 -0.00163211)
(0.652048 0.000518696 -0.00150686)
(0.651792 0.000615087 -0.0128671)
(0.969784 0.00104855 -0.00212298)
(0.717718 0.00135255 -0.850255)
(0.628743 0.000254016 -0.0021743)
(0.651522 0.000552129 -0.00234152)
(0.651564 0.000690805 -0.0192224)
(0.958052 0.0012991 -0.00507285)
(0.721068 0.00172558 -0.845112)
(0.681527 0.0029751 -0.910015)
(0.125371 0.00302287 -0.632318)
(0.628595 0.000235317 -0.00277822)
(0.650712 0.000572362 -0.00344991)
(0.651157 0.000761425 -0.0260514)
(0.939746 0.00158354 -0.00973007)
(0.718719 0.00234367 -0.821116)
(0.130496 0.00373192 -0.625906)
(0.572683 0.00806797 -0.781746)
(0.131477 0.00638133 -0.68746)
(0.0770093 0.0033952 -0.386511)
(0.628383 0.000208813 -0.00343328)
(0.649528 0.000574636 -0.00486559)
(0.650443 0.000818975 -0.0330173)
(0.91511 0.00188502 -0.0164738)
(0.712133 0.00335423 -0.788411)
(0.142524 0.00474016 -0.612399)
(0.0741218 0.00428578 -0.388222)
(0.47394 0.018486 -0.666704)
(0.135951 0.015559 -0.705337)
(0.0980977 0.00793678 -0.409552)
(0.0122725 0.00428101 -0.22271)
(0.628082 0.000175307 -0.00412024)
(0.647882 0.000555033 -0.00658348)
(0.649249 0.000847453 -0.0397597)
(0.884837 0.00217746 -0.0255303)
(0.7023 0.00494031 -0.748508)
(0.160786 0.00621849 -0.593569)
(0.076145 0.00552449 -0.387243)
(0.0146673 0.00498774 -0.223954)
(0.424299 0.0344937 -0.621702)
(0.141929 0.0310129 -0.734985)
(0.142643 0.0215453 -0.411265)
(0.0134731 0.00983657 -0.235982)
(0.010028 0.00419129 -0.117329)
(0.627661 0.000136515 -0.00480747)
(0.645706 0.000509506 -0.00854272)
(0.64737 0.000816703 -0.0459117)
(0.849971 0.0023884 -0.036697)
(0.689832 0.00712828 -0.699999)
(0.184402 0.00831309 -0.57118)
(0.0830543 0.00739041 -0.383595)
(0.018318 0.00596377 -0.223997)
(0.0104129 0.00498106 -0.118361)
(0.149837 0.0493586 -0.763104)
(0.390524 0.0607005 -0.602895)
(0.183729 0.0453031 -0.437941)
(0.020696 0.0260067 -0.236966)
(0.0135266 0.00997468 -0.124175)
(0.000739092 0.00375442 -0.0554283)
(0.627095 9.476e-05 -0.0054486)
(0.642976 0.000439507 -0.010621)
(0.64461 0.000680032 -0.0511223)
(0.811974 0.00246176 -0.0492704)
(0.675126 0.00946899 -0.642388)
(0.212303 0.0110125 -0.544417)
(0.0943699 0.0101358 -0.377524)
(0.0235666 0.00763192 -0.222374)
(0.0113982 0.00590098 -0.118623)
(0.00189275 0.00418685 -0.0558229)
(0.203104 0.0700419 -0.460452)
(0.157958 0.0717777 -0.789116)
(0.339927 0.0999955 -0.584463)
(0.035324 0.0482495 -0.255331)
(0.0220965 0.0242281 -0.124254)
(0.000660514 0.00800296 -0.0588139)
(0.00138028 0.00242521 -0.0233373)
(0.626376 5.55339e-05 -0.00598551)
(0.639727 0.00034337 -0.0126359)
(0.640826 0.000428841 -0.0551038)
(0.772805 0.00221455 -0.0620555)
(0.658564 0.0099468 -0.57682)
(0.243112 0.012644 -0.511988)
(0.109403 0.0126593 -0.367312)
(0.0307277 0.00977078 -0.21852)
(0.0133103 0.00711813 -0.117314)
(0.00312847 0.00469729 -0.0555304)
(0.0016405 0.00262671 -0.0233534)
(0.043892 0.0572743 -0.260601)
(0.206706 0.0845688 -0.459985)
(0.155086 0.088145 -0.800746)
(0.233873 0.1155 -0.522083)
(0.0302263 0.0338527 -0.126975)
(0.000930781 0.0155158 -0.0583263)
(0.0019281 0.00466968 -0.0245911)
(1.66866e-05 0.0012918 -0.00891411)
(0.636056 0.000246684 -0.0143758)
(0.636016 6.93072e-05 -0.0576465)
(0.734747 0.00187587 -0.0737791)
(0.640591 0.00690803 -0.508086)
(0.274764 0.0110831 -0.474868)
(0.127205 0.0123627 -0.352097)
(0.0398152 0.0108215 -0.210884)
(0.0163541 0.00811421 -0.113181)
(0.00455436 0.00522282 -0.0533313)
(0.00193572 0.00282736 -0.022457)
(0.000359456 0.00134314 -0.00856594)
(0.0280603 0.025486 -0.105772)
(0.0393618 0.0449683 -0.220578)
(0.180194 0.0694038 -0.387356)
(0.108794 0.0707908 -0.694534)
(0.0733575 0.06028 -0.319827)
(0.000878153 0.0135549 -0.0509984)
(0.00257507 0.00649452 -0.0225813)
(0.00014344 0.00213108 -0.00900795)
(-0.000103938 0.000590916 -0.00311381)
(0.632129 9.5533e-05 -0.0156269)
(0.630269 -4.80005e-05 -0.0586034)
(0.699546 0.000790069 -0.0829796)
(0.621614 0.00167338 -0.442014)
(0.304866 0.00372876 -0.436488)
(0.146697 0.00445799 -0.334936)
(0.0504501 0.00441708 -0.20121)
(0.0205094 0.00368141 -0.106862)
(0.00626629 0.00266491 -0.0492545)
(0.00235502 0.00164611 -0.0202628)
(0.000622789 0.000893436 -0.00755166)
(0.000129778 0.000444811 -0.00267579)
(0.000169702 0.00252613 -0.0235487)
(0.0138452 0.00494467 -0.0479276)
(0.0173758 0.00808763 -0.0993433)
(0.0839478 0.0124133 -0.158287)
(0.0264284 0.00777493 -0.283298)
(-0.00266628 0.00401543 -0.0695057)
(0.00141589 0.00149739 -0.0111471)
(0.000149998 0.00106111 -0.00552072)
(2.35209e-05 0.000776167 -0.00250828)
(-0.00033694 0.000211156 -0.000930532)
(0.629105 0.000212744 -0.000128451)
(0.629074 0.000233257 -0.000412116)
(0.652689 0.000328998 -0.000131004)
(0.629032 0.000250118 -0.000750822)
(0.652595 0.000378648 -0.000445596)
(0.652085 0.000393337 -0.00228142)
(0.628977 0.000261783 -0.00115677)
(0.652417 0.000428538 -0.000894057)
(0.652026 0.000463848 -0.00723238)
(0.975202 0.000659678 -0.000629177)
(0.628903 0.000266928 -0.00163202)
(0.652103 0.000476138 -0.00151024)
(0.651928 0.000538379 -0.012869)
(0.969859 0.000836568 -0.00212467)
(0.717766 0.000930118 -0.85026)
(0.628799 0.000264509 -0.00217459)
(0.651587 0.000518315 -0.00234748)
(0.651738 0.000614652 -0.0192287)
(0.958196 0.0010515 -0.00507824)
(0.721166 0.00118339 -0.845163)
(0.681688 0.00200677 -0.910013)
(0.125177 0.0020869 -0.632346)
(0.628652 0.000253905 -0.0027792)
(0.650785 0.000551219 -0.00345939)
(0.651371 0.000689336 -0.0260671)
(0.939992 0.00130572 -0.00974372)
(0.718892 0.00158755 -0.821237)
(0.13028 0.00260857 -0.62601)
(0.572995 0.00530981 -0.781605)
(0.131075 0.00443039 -0.687516)
(0.0761946 0.00219361 -0.386193)
(0.628439 0.000234973 -0.00343518)
(0.649607 0.000570397 -0.00487965)
(0.650695 0.000757148 -0.0330509)
(0.915508 0.00159484 -0.0165056)
(0.712408 0.00223675 -0.788677)
(0.142246 0.00335697 -0.61262)
(0.0732608 0.00281101 -0.387912)
(0.474072 0.0118896 -0.664798)
(0.134816 0.0108316 -0.705141)
(0.096499 0.00517458 -0.409055)
(0.0113511 0.00294067 -0.222285)
(0.628134 0.000208063 -0.00412306)
(0.647962 0.000570817 -0.00660252)
(0.649531 0.000807852 -0.0398236)
(0.88545 0.0018992 -0.0255947)
(0.702696 0.00324652 -0.749106)
(0.16038 0.00443212 -0.593983)
(0.0752364 0.00365868 -0.387018)
(0.0137108 0.00340821 -0.223474)
(0.423319 0.0217058 -0.615863)
(0.139155 0.0216808 -0.732644)
(0.139187 0.0141452 -0.4098)
(0.0115431 0.00671804 -0.23522)
(0.00925335 0.00263042 -0.116862)
(0.627706 0.000174081 -0.00481057)
(0.64578 0.000548223 -0.0085671)
(0.647666 0.000821637 -0.0460189)
(0.850856 0.00218483 -0.0368281)
(0.690343 0.00473029 -0.70135)
(0.183773 0.00594743 -0.572006)
(0.0820743 0.00492313 -0.383662)
(0.0173378 0.00400783 -0.223544)
(0.00971383 0.00325182 -0.117894)
(0.144633 0.0351299 -0.756643)
(0.387666 0.0382118 -0.590606)
(0.178497 0.030742 -0.432678)
(0.0163356 0.017995 -0.234702)
(0.0121673 0.00667262 -0.123412)
(0.000186401 0.00260905 -0.0551353)
(0.627133 0.000135062 -0.00545094)
(0.643035 0.000498839 -0.0106481)
(0.644893 0.00076554 -0.0512717)
(0.81309 0.00236905 -0.0494782)
(0.67569 0.00655893 -0.645142)
(0.211373 0.00791332 -0.546271)
(0.0932743 0.00679432 -0.378532)
(0.0225317 0.00496784 -0.222371)
(0.0107604 0.00385227 -0.118378)
(0.00137543 0.00292676 -0.0556143)
(0.199281 0.051423 -0.45367)
(0.151609 0.053207 -0.778663)
(0.339817 0.0678596 -0.567458)
(0.0295273 0.0368013 -0.251285)
(0.0198877 0.0178853 -0.122752)
(-0.00034987 0.00586642 -0.058422)
(0.00109995 0.00180317 -0.0232223)
(0.626404 9.39916e-05 -0.00598553)
(0.639761 0.000424594 -0.0126641)
(0.641073 0.000601544 -0.0552567)
(0.773936 0.00238085 -0.0623728)
(0.659045 0.00805579 -0.581492)
(0.241876 0.0100248 -0.51589)
(0.108115 0.00923055 -0.370504)
(0.0295667 0.00659757 -0.220073)
(0.0126591 0.00470109 -0.117975)
(0.00263666 0.00325909 -0.055755)
(0.00140566 0.00192979 -0.0234125)
(0.0417807 0.0530258 -0.26742)
(0.211796 0.0739894 -0.46931)
(0.158373 0.0769122 -0.805398)
(0.260447 0.10387 -0.533745)
(0.0297313 0.0314546 -0.129703)
(-0.000785742 0.0132755 -0.0584393)
(0.0015233 0.00366457 -0.0245851)
(-0.000241794 0.00100184 -0.00893493)
(0.636066 0.000326164 -0.0143991)
(0.636191 0.000349119 -0.0577412)
(0.735495 0.00207182 -0.0740745)
(0.640857 0.0075349 -0.513078)
(0.273561 0.0105044 -0.480352)
(0.125866 0.0107309 -0.358049)
(0.0385969 0.00826523 -0.215495)
(0.0156625 0.00578001 -0.116345)
(0.00407757 0.00372087 -0.055141)
(0.00174619 0.00209419 -0.0233196)
(0.00015418 0.00105525 -0.00892851)
(0.0336227 0.033937 -0.127338)
(0.0475107 0.0574767 -0.264861)
(0.213202 0.0847422 -0.464412)
(0.145389 0.085607 -0.802256)
(0.130793 0.0888714 -0.425188)
(-0.00034771 0.017066 -0.0590121)
(0.00239151 0.00680642 -0.0241613)
(-0.000249615 0.0018696 -0.00941561)
(-0.000336552 0.000492749 -0.00325746)
(0.632117 0.000228457 -0.0156486)
(0.63041 4.38437e-05 -0.0585827)
(0.699755 0.00167074 -0.0833337)
(0.621704 0.00435513 -0.445214)
(0.30418 0.00807557 -0.441565)
(0.145596 0.00922987 -0.341603)
(0.0494306 0.00833884 -0.208003)
(0.0198122 0.00633447 -0.112548)
(0.00580524 0.00413321 -0.0531086)
(0.00218756 0.00228138 -0.0223994)
(0.000478335 0.00111144 -0.00857224)
(-2.0975e-05 0.000502291 -0.00312186)
(-0.000164026 0.0116568 -0.0481083)
(0.0288776 0.0234191 -0.102164)
(0.041344 0.0405083 -0.216543)
(0.173939 0.0574003 -0.369593)
(0.0854831 0.0513387 -0.624813)
(0.0179344 0.0269417 -0.201481)
(0.00245415 0.0056486 -0.0206647)
(-0.000265445 0.00253126 -0.00863338)
(-0.000283586 0.000796633 -0.00328467)
(-0.000791202 0.000225591 -0.00112522)
(0.628131 8.63133e-05 -0.0162561)
(0.624002 -3.79827e-05 -0.057736)
(0.667969 0.0006659 -0.0890464)
(0.602218 0.000850356 -0.382481)
(0.331625 0.00248802 -0.40231)
(0.166324 0.00300366 -0.323871)
(0.0616234 0.00308401 -0.199577)
(0.0249332 0.00259262 -0.107572)
(0.00786931 0.0018782 -0.0499327)
(0.00280217 0.00116295 -0.0206418)
(0.00075932 0.000642203 -0.00771388)
(0.00017874 0.000329656 -0.00274629)
(-0.000258934 0.000163053 -0.000959224)
(0.00114699 0.00101722 -0.00935375)