/*--------------------------------*- C++ -*----------------------------------*\
  =========                 |
  \\      /  F ield         | OpenFOAM: The Open Source CFD Toolbox
   \\    /   O peration     | Website:  https://openfoam.org
    \\  /    A nd           | Version:  7
     \\/     M anipulation  |
\*---------------------------------------------------------------------------*/
FoamFile
{
    version     2.0;
    format      ascii;
    class       surfaceScalarField;
    location    "300";
    object      phi;
}
// * * * * * * * * * * * * * * * * * * * * * * * * * * * * * * * * * * * * * //

dimensions      [0 3 -1 0 0 0 0];

internalField   nonuniform List<scalar> 
127637
(
-3.64842e-14
6.46566e-12
3.16815e-11
-1.01013e-13
8.03179e-12
3.52385e-11
-6.67555e-14
1.38001e-11
4.01814e-11
-8.46944e-14
5.82878e-14
3.17079e-11
-1.15771e-13
9.06057e-12
3.90631e-11
-1.36391e-13
1.70891e-11
4.46932e-11
-1.44011e-13
1.07037e-13
3.51908e-11
-1.34079e-13
2.22352e-11
5.06963e-11
-1.08809e-13
3.06054e-13
4.00424e-11
-1.68753e-14
5.46385e-13
3.11784e-11
-1.37798e-13
1.0188e-11
4.32493e-11
-1.60288e-13
1.92972e-11
4.95451e-11
-1.89442e-13
1.20724e-13
3.89878e-11
-2.11681e-13
2.73538e-11
5.6385e-11
-1.82254e-13
4.34144e-13
4.44395e-11
-3.58283e-14
6.15782e-13
3.4594e-11
-2.63219e-13
3.1623e-11
6.36303e-11
-1.40707e-13
7.93666e-13
5.03494e-11
-2.12061e-14
1.19852e-12
3.94115e-11
-1.23118e-14
7.27155e-14
3.1118e-11
-1.23592e-13
1.12631e-11
4.77677e-11
-1.82058e-13
2.17028e-11
5.48533e-11
-2.21609e-13
1.61018e-13
4.31204e-11
-2.41233e-13
3.09052e-11
6.25071e-11
-2.4078e-13
4.90119e-13
4.92342e-11
-5.55295e-14
6.85921e-13
3.83215e-11
-3.51787e-13
3.84831e-11
7.07616e-11
-2.31762e-13
1.03405e-12
5.58761e-11
-4.52464e-14
1.35033e-12
4.3729e-11
-2.45549e-14
8.05613e-14
3.45257e-11
-4.57656e-13
4.17213e-11
7.92969e-11
-1.8406e-13
1.66763e-12
6.29404e-11
-2.6494e-14
1.9816e-12
4.95928e-11
-1.55954e-14
1.70096e-13
3.93297e-11
-4.83218e-15
4.09102e-14
3.10819e-11
-1.12843e-13
1.24353e-11
5.26405e-11
-1.6469e-13
2.40033e-11
6.0583e-11
-2.34868e-13
1.87403e-13
4.75935e-11
-2.57719e-13
3.47664e-11
6.92026e-11
-2.80442e-13
6.01257e-13
5.44528e-11
-7.36336e-14
7.62993e-13
4.23755e-11
-3.84746e-13
4.34844e-11
7.84453e-11
-3.05884e-13
1.16695e-12
6.19044e-11
-7.02263e-14
1.50421e-12
4.84409e-11
-3.68289e-14
8.92915e-14
3.82445e-11
-5.73882e-13
5.00253e-11
8.81685e-11
-2.96106e-13
2.06263e-12
6.9845e-11
-5.68806e-14
2.23118e-12
5.50257e-11
-3.10315e-14
1.88447e-13
4.36366e-11
-1.03846e-14
4.56321e-14
3.44855e-11
-6.82969e-13
5.21965e-11
9.79017e-11
-2.41863e-13
3.09596e-12
7.81104e-11
-3.27595e-14
2.90379e-12
6.20509e-11
-1.96658e-14
2.97698e-13
4.94848e-11
-6.09669e-15
9.06027e-14
3.92861e-11
-3.26165e-15
5.79773e-15
3.10794e-11
-9.30538e-14
1.36595e-11
5.78597e-11
-1.49019e-13
2.65066e-11
6.67614e-11
-2.36666e-13
2.27371e-13
5.24149e-11
-2.32858e-13
3.84694e-11
7.64302e-11
-2.97525e-13
6.85945e-13
6.01015e-11
-8.9326e-14
8.43728e-13
4.67655e-11
-3.85215e-13
4.89259e-11
8.68453e-11
-3.54435e-13
1.38687e-12
6.84656e-11
-9.3071e-14
1.67334e-12
5.35652e-11
-4.87755e-14
9.95723e-14
4.22879e-11
-6.12246e-13
5.64932e-11
9.77417e-11
-3.88958e-13
2.32558e-12
7.73795e-11
-8.84246e-14
2.48539e-12
6.09547e-11
-4.65671e-14
2.08895e-13
4.83368e-11
-1.65215e-14
5.07063e-14
3.81999e-11
-8.63387e-13
6.15235e-11
1.08832e-10
-3.79046e-13
3.69619e-12
8.66721e-11
-7.10802e-14
3.26575e-12
6.88488e-11
-3.90453e-14
3.29866e-13
5.49036e-11
-1.31248e-14
1.01059e-13
4.35881e-11
-6.81221e-15
6.42268e-15
3.44827e-11
-8.69148e-13
6.26253e-11
1.19431e-10
-3.14127e-13
5.2301e-12
9.60817e-11
-3.98764e-14
3.96855e-12
7.70855e-11
-2.46856e-14
4.64762e-13
6.19085e-11
-7.65372e-15
1.5114e-13
4.94319e-11
-4.12365e-15
1.32999e-14
3.92827e-11
-1.82424e-15
1.9725e-15
3.10792e-11
-7.51125e-14
1.49674e-11
6.34195e-11
-1.23595e-13
2.91217e-11
7.33791e-11
-2.27234e-13
2.64586e-13
5.75857e-11
-2.08504e-13
4.24901e-11
8.42231e-11
-2.99451e-13
8.00559e-13
6.61901e-11
-1.02161e-13
9.31156e-13
5.14966e-11
-3.4647e-13
5.41673e-11
9.5914e-11
-3.75978e-13
1.56975e-12
7.55679e-11
-1.12969e-13
1.85078e-12
5.91143e-11
-5.9941e-14
1.1068e-13
4.6666e-11
-5.8465e-13
6.35588e-11
1.08203e-10
-4.47247e-13
2.71024e-12
8.55802e-11
-1.17143e-13
2.76483e-12
6.74028e-11
-6.16507e-14
2.3274e-13
5.34472e-11
-2.30827e-14
5.6139e-14
4.22383e-11
-9.22388e-13
6.93782e-11
1.20645e-10
-4.93831e-13
4.16158e-12
9.60205e-11
-1.10752e-13
3.63736e-12
7.62672e-11
-5.86004e-14
3.65705e-13
6.08175e-11
-2.08807e-14
1.12283e-13
4.8283e-11
-1.0663e-14
7.10026e-15
3.81967e-11
-1.16211e-12
7.25828e-11
1.32736e-10
-4.81734e-13
6.0926e-12
1.06603e-10
-8.80826e-14
4.45538e-12
8.55307e-11
-4.88554e-14
5.15152e-13
6.86877e-11
-1.65081e-14
1.68554e-13
5.4845e-11
-8.60998e-15
1.4727e-14
4.35843e-11
-3.85791e-15
2.17306e-15
3.44825e-11
-9.45606e-13
7.25081e-11
1.43564e-10
-3.95085e-13
8.15341e-12
1.16903e-10
-4.74414e-14
5.17484e-12
9.49229e-11
-3.08037e-14
6.81686e-13
7.68994e-11
-9.5393e-15
2.23757e-13
6.18455e-11
-5.18958e-15
2.28885e-14
4.94275e-11
-2.3048e-15
4.36152e-15
3.92827e-11
-1.12034e-15
1.72525e-16
3.10802e-11
-5.63466e-14
1.63442e-11
6.92986e-11
-1.00033e-13
3.19137e-11
8.04286e-11
-2.11645e-13
3.06271e-13
6.30976e-11
-1.74144e-13
4.66903e-11
9.25704e-11
-2.87578e-13
9.11782e-13
7.27201e-11
-1.11442e-13
1.02341e-12
5.65716e-11
-3.06637e-13
5.98427e-11
1.05691e-10
-3.77912e-13
1.80227e-12
8.32233e-11
-1.29167e-13
2.04288e-12
6.50945e-11
-6.99644e-14
1.2321e-13
5.13834e-11
-5.23765e-13
7.04133e-11
1.19499e-10
-4.73968e-13
3.05273e-12
9.44577e-11
-1.42247e-13
3.0585e-12
7.43853e-11
-7.57753e-14
2.58557e-13
5.89806e-11
-2.99235e-14
6.20447e-14
4.66108e-11
-8.61311e-13
7.8017e-11
1.33548e-10
-5.62507e-13
4.78613e-12
1.06195e-10
-1.46656e-13
4.04595e-12
8.4335e-11
-7.75589e-14
4.07165e-13
6.72473e-11
-2.91775e-14
1.24334e-13
5.33872e-11
-1.47868e-14
7.89431e-15
4.22345e-11
-1.27485e-12
8.16703e-11
1.47136e-10
-6.21914e-13
6.84782e-12
1.18099e-10
-1.37717e-13
4.96087e-12
9.47466e-11
-7.33162e-14
5.71219e-13
7.60862e-11
-2.62688e-14
1.87254e-13
6.07522e-11
-1.34789e-14
1.62892e-14
4.82786e-11
-6.0962e-15
2.44344e-15
3.81965e-11
-1.3891e-12
8.28167e-11
1.59521e-10
-5.99221e-13
9.33982e-12
1.29693e-10
-1.07818e-13
5.79639e-12
1.05323e-10
-6.06986e-14
7.55975e-13
8.53198e-11
-2.06372e-14
2.49453e-13
6.86178e-11
-1.08333e-14
2.53423e-14
5.484e-11
-4.87678e-15
4.81687e-15
4.35842e-11
-2.34821e-15
2.10692e-16
3.44836e-11
-8.92093e-13
8.12451e-11
1.69556e-10
-4.73575e-13
1.18335e-11
1.40357e-10
-5.47468e-14
6.51483e-12
1.15618e-10
-3.81315e-14
9.58484e-13
9.46842e-11
-1.17793e-14
3.09456e-13
7.68255e-11
-6.4943e-15
3.50914e-14
6.18397e-11
-2.89888e-15
7.2709e-15
4.94275e-11
-1.41633e-15
4.0737e-16
3.92838e-11
-6.28697e-16
3.91548e-17
3.10808e-11
-3.93684e-14
1.77927e-11
7.5478e-11
-7.58238e-14
3.48523e-11
8.78834e-11
-1.91765e-13
3.47295e-13
6.89315e-11
-1.42081e-13
5.11712e-11
1.01462e-10
-2.67764e-13
1.03429e-12
7.96808e-11
-1.17184e-13
1.12163e-12
6.19817e-11
-2.58226e-13
6.57709e-11
1.16164e-10
-3.62927e-13
2.03338e-12
9.14338e-11
-1.40923e-13
2.24575e-12
7.15095e-11
-7.84437e-14
1.36703e-13
5.64433e-11
-4.5938e-13
7.78122e-11
1.31677e-10
-4.7548e-13
3.46823e-12
1.04027e-10
-1.62609e-13
3.37637e-12
8.19102e-11
-8.844e-14
2.87549e-13
6.49429e-11
-3.68269e-14
6.83454e-14
5.13219e-11
-7.72124e-13
8.64887e-11
1.47486e-10
-5.94996e-13
5.37359e-12
1.17211e-10
-1.78173e-13
4.47636e-12
9.30714e-11
-9.53396e-14
4.52128e-13
7.42095e-11
-3.78255e-14
1.37416e-13
5.89138e-11
-1.91333e-14
8.72379e-15
4.66064e-11
-1.19187e-12
9.17392e-11
1.62856e-10
-7.01976e-13
7.80244e-12
1.30611e-10
-1.82329e-13
5.51694e-12
1.04769e-10
-9.69982e-14
6.35538e-13
8.41303e-11
-3.67129e-14
2.07369e-13
6.71747e-11
-1.86903e-14
1.80943e-14
5.33823e-11
-8.53905e-15
2.66861e-15
4.22343e-11
-1.59804e-12
9.29275e-11
1.76815e-10
-7.68754e-13
1.04777e-11
1.43676e-10
-1.69501e-13
6.45076e-12
1.16671e-10
-9.10448e-14
8.38424e-13
9.45097e-11
-3.28551e-14
2.77075e-13
7.60086e-11
-1.69604e-14
2.8038e-14
6.07466e-11
-7.70468e-15
5.40107e-15
4.82785e-11
-3.70122e-15
2.04134e-16
3.81976e-11
-1.48848e-12
9.17567e-11
1.88362e-10
-7.19428e-13
1.34052e-11
1.55702e-10
-1.29631e-13
7.27891e-12
1.28285e-10
-7.47352e-14
1.06356e-12
1.05052e-10
-2.55994e-14
3.44784e-13
8.52382e-11
-1.35535e-14
3.88488e-14
6.86114e-11
-6.13636e-15
8.03839e-15
5.484e-11
-2.96739e-15
4.82488e-16
4.35855e-11
-1.33308e-15
6.34903e-18
3.44842e-11
-7.49565e-13
8.81832e-11
1.96174e-10
-5.3753e-13
1.60898e-11
1.65837e-10
-6.10462e-14
7.96697e-12
1.38966e-10
-4.66641e-14
1.30225e-12
1.15321e-10
-1.43816e-14
4.08912e-13
9.45991e-11
-8.07004e-15
5.04805e-14
7.68181e-11
-3.62486e-15
1.07566e-14
6.18399e-11
-1.78204e-15
7.13709e-16
4.9429e-11
-7.94174e-16
8.23552e-17
3.92846e-11
-3.60318e-16
1.14254e-17
3.10811e-11
-2.39157e-14
1.93014e-11
8.19161e-11
-5.38616e-14
3.79428e-11
9.5719e-11
-1.70296e-13
3.89165e-13
7.50674e-11
-1.09892e-13
5.58863e-11
1.10866e-10
-2.42625e-13
1.15735e-12
8.70482e-11
-1.19262e-13
1.22484e-12
6.77087e-11
-2.12982e-13
7.20893e-11
1.27321e-10
-3.37823e-13
2.28547e-12
1.00186e-10
-1.4817e-13
2.4617e-12
7.83479e-11
-8.51023e-14
1.51359e-13
6.1837e-11
-3.89921e-13
8.55401e-11
1.44722e-10
-4.56557e-13
3.88888e-12
1.1429e-10
-1.77427e-13
3.71232e-12
8.99821e-11
-9.91641e-14
3.18789e-13
7.13381e-11
-4.35446e-14
7.51386e-14
5.63749e-11
-6.74477e-13
9.56056e-11
1.62511e-10
-5.95477e-13
6.06124e-12
1.29084e-10
-2.03626e-13
4.94214e-12
1.02486e-10
-1.11271e-13
5.02432e-13
8.17112e-11
-4.65543e-14
1.51397e-13
6.48685e-11
-2.36254e-14
9.6925e-15
5.13167e-11
-1.07697e-12
1.01759e-10
1.79847e-10
-7.40893e-13
8.74045e-12
1.44158e-10
-2.21653e-13
6.10457e-12
1.15622e-10
-1.19252e-13
7.05415e-13
9.28403e-11
-4.75964e-14
2.29192e-13
7.41286e-11
-2.41859e-14
1.99992e-14
5.89081e-11
-1.11686e-14
2.9928e-15
4.6606e-11
-1.5266e-12
1.04198e-10
1.95682e-10
-8.62551e-13
1.18576e-11
1.58894e-10
-2.24573e-13
7.1711e-12
1.29012e-10
-1.204e-13
9.32211e-13
1.04502e-10
-4.59297e-14
3.06863e-13
8.40439e-11
-2.35169e-14
3.11266e-14
6.71682e-11
-1.07942e-14
5.91467e-15
5.33821e-11
-5.1766e-15
2.60397e-16
4.22355e-11
-1.823e-12
1.02659e-10
2.08765e-10
-9.22325e-13
1.50101e-11
1.72486e-10
-2.05561e-13
8.09501e-12
1.42107e-10
-1.11995e-13
1.17981e-12
1.16367e-10
-4.07907e-14
3.82863e-13
9.44191e-11
-2.12197e-14
4.29995e-14
7.60013e-11
-9.69383e-15
9.00024e-15
6.07465e-11
-4.67906e-15
4.8392e-16
4.82799e-11
-2.1052e-15
4.91337e-17
3.81983e-11
-1.45795e-12
9.88295e-11
2.17887e-10
-8.26642e-13
1.80967e-11
1.83959e-10
-1.52245e-13
8.88024e-12
1.54191e-10
-9.09368e-14
1.44577e-12
1.27947e-10
-3.14512e-14
4.55219e-13
1.04958e-10
-1.68362e-14
5.58952e-14
8.523e-11
-7.67679e-15
1.19165e-14
6.86115e-11
-3.73327e-15
8.33777e-16
5.48416e-11
-1.6859e-15
2.74036e-17
4.35864e-11
-7.47437e-16
4.88871e-17
3.44846e-11
-5.8216e-13
9.27162e-11
2.21702e-10
-5.78701e-13
2.05884e-11
1.92254e-10
-6.60844e-14
9.48517e-12
1.64385e-10
-5.61972e-14
1.71383e-12
1.38611e-10
-1.73292e-14
5.22221e-13
1.15225e-10
-9.94196e-15
6.96006e-14
9.45899e-11
-4.499e-15
1.4868e-14
7.68185e-11
-2.22894e-15
1.11418e-15
6.18417e-11
-9.99179e-16
1.35875e-16
4.94299e-11
-4.55876e-16
3.49105e-17
3.9285e-11
-1.7808e-16
-8.11495e-18
3.10813e-11
-1.05145e-14
2.08602e-11
8.85643e-11
-3.39479e-14
4.11613e-11
1.03883e-10
-1.48599e-13
4.30543e-13
8.14639e-11
-8.07416e-14
6.08438e-11
1.20749e-10
-2.15448e-13
1.28389e-12
9.47971e-11
-1.18008e-13
1.3331e-12
7.3733e-11
-1.68907e-13
7.87359e-11
1.39119e-10
-3.06132e-13
2.54162e-12
1.0945e-10
-1.50798e-13
2.68867e-12
8.5587e-11
-8.97025e-14
1.66826e-13
6.75465e-11
-3.25113e-13
9.37666e-11
1.58618e-10
-4.2482e-13
4.34424e-12
1.2523e-10
-1.86534e-13
4.0699e-12
9.85869e-11
-1.0758e-13
3.52662e-13
7.81551e-11
-4.98048e-14
8.23008e-14
6.17609e-11
-5.76591e-13
1.05129e-10
1.78607e-10
-5.71636e-13
6.76759e-12
1.4182e-10
-2.22207e-13
5.43489e-12
1.12586e-10
-1.24772e-13
5.56654e-13
8.97577e-11
-5.50467e-14
1.66455e-13
7.12553e-11
-2.8162e-14
1.06917e-14
5.63688e-11
-9.42646e-13
1.12515e-10
1.9816e-10
-7.39844e-13
9.81012e-12
1.58761e-10
-2.53264e-13
6.74036e-12
1.27318e-10
-1.39178e-13
7.83265e-13
1.02225e-10
-5.85827e-14
2.52539e-13
8.1621e-11
-2.98633e-14
2.21967e-14
6.48617e-11
-1.39633e-14
3.24568e-15
5.13162e-11
-1.40247e-12
1.15619e-10
2.16087e-10
-9.09226e-13
1.32604e-11
1.75373e-10
-2.73282e-13
7.93544e-12
1.42376e-10
-1.48046e-13
1.03426e-12
1.15321e-10
-5.95509e-14
3.39142e-13
9.2744e-11
-3.0433e-14
3.44034e-14
7.41211e-11
-1.41163e-14
6.61592e-15
5.89077e-11
-6.77553e-15
2.45028e-16
4.66074e-11
-1.80855e-12
1.1485e-10
2.31011e-10
-1.03431e-12
1.69e-11
1.90752e-10
-2.73063e-13
8.99399e-12
1.57139e-10
-1.48042e-13
1.31098e-12
1.28669e-10
-5.70447e-14
4.24025e-13
1.04401e-10
-2.94213e-14
4.76982e-14
8.40355e-11
-1.35828e-14
9.8698e-15
6.71681e-11
-6.54237e-15
5.96197e-16
5.33836e-11
-2.9545e-15
1.81713e-18
4.22363e-11
-1.91553e-12
1.10279e-10
2.41469e-10
-1.06519e-12
2.02278e-11
2.03786e-10
-2.44399e-13
9.86791e-12
1.70805e-10
-1.36108e-13
1.60412e-12
1.41728e-10
-5.01833e-14
5.05318e-13
1.16263e-10
-2.63581e-14
6.18861e-14
9.44098e-11
-1.21274e-14
1.33085e-14
7.60014e-11
-5.88815e-15
8.51307e-16
6.07483e-11
-2.66e-15
1.02361e-16
4.82808e-11
-1.17864e-15
1.1668e-17
3.81988e-11
-1.33747e-12
1.03419e-10
2.46196e-10
-9.06871e-13
2.30525e-11
2.1326e-10
-1.74146e-13
1.05522e-11
1.82395e-10
-1.08974e-13
1.90341e-12
1.53787e-10
-3.81883e-14
5.80812e-13
1.27842e-10
-2.0731e-14
7.7091e-14
1.04948e-10
-9.5345e-15
1.64902e-14
8.52304e-11
-4.67048e-15
1.27245e-15
6.86136e-11
-2.12204e-15
5.83662e-17
5.48426e-11
-9.43814e-16
1.00558e-16
4.35869e-11
-3.8302e-16
-4.4209e-17
3.44848e-11
-4.39554e-13
9.43919e-11
2.441e-10
-5.93864e-13
2.48734e-11
2.18011e-10
-7.04413e-14
1.09884e-11
1.90821e-10
-6.62733e-14
2.18397e-12
1.63981e-10
-2.0584e-14
6.48336e-13
1.38505e-10
-1.21181e-14
9.28367e-14
1.15214e-10
-5.53358e-15
1.96359e-14
9.45907e-11
-2.76778e-15
1.63045e-15
7.68208e-11
-1.25056e-15
1.99657e-16
6.18429e-11
-5.73579e-16
6.22428e-17
4.94305e-11
-2.247e-16
-1.81502e-17
3.92853e-11
-1.0011e-16
2.05846e-17
3.10814e-11
9.21092e-16
2.24543e-11
9.53601e-11
-1.66743e-14
4.44864e-11
1.12313e-10
-1.27823e-13
4.71717e-13
8.80718e-11
-5.44586e-14
6.60059e-11
1.31047e-10
-1.88007e-13
1.41086e-12
1.02875e-10
-1.13795e-13
1.44562e-12
8.0014e-11
-1.2916e-13
8.57219e-11
1.5152e-10
-2.71854e-13
2.80611e-12
1.19193e-10
-1.49204e-13
2.92672e-12
9.32019e-11
-9.214e-14
1.8312e-13
7.35524e-11
-2.63821e-13
1.02417e-10
1.73315e-10
-3.85024e-13
4.81105e-12
1.3681e-10
-1.89842e-13
4.44578e-12
1.07696e-10
-1.13397e-13
3.88434e-13
8.53712e-11
-5.53199e-14
8.99363e-14
6.7462e-11
-4.85216e-13
1.15252e-10
1.95754e-10
-5.31714e-13
7.52764e-12
1.55395e-10
-2.33588e-13
5.95934e-12
1.23352e-10
-1.35363e-13
6.15367e-13
9.83348e-11
-6.29626e-14
1.82354e-13
7.80629e-11
-3.261e-14
1.18454e-14
6.17535e-11
-8.11605e-13
1.23759e-10
2.17782e-10
-7.10148e-13
1.09212e-11
1.74424e-10
-2.76419e-13
7.4138e-12
1.39864e-10
-1.56084e-13
8.67219e-13
1.12292e-10
-6.92704e-14
2.77674e-13
8.96572e-11
-3.55996e-14
2.44835e-14
7.12472e-11
-1.68753e-14
3.63158e-15
5.6368e-11
-1.23794e-12
1.27864e-10
2.3808e-10
-9.06902e-13
1.48313e-11
1.93137e-10
-3.12269e-13
8.76233e-12
1.56778e-10
-1.7279e-13
1.14746e-12
1.26978e-10
-7.33015e-14
3.73743e-13
1.02118e-10
-3.75764e-14
3.81552e-14
8.16122e-11
-1.76511e-14
7.19332e-15
6.48612e-11
-8.48437e-15
3.20362e-16
5.13177e-11
-1.7039e-12
1.27446e-10
2.55084e-10
-1.09151e-12
1.88721e-11
2.10533e-10
-3.32883e-13
9.95256e-12
1.73416e-10
-1.8207e-13
1.45391e-12
1.41991e-10
-7.39738e-14
4.68603e-13
1.15208e-10
-3.80756e-14
5.273e-14
9.27343e-11
-1.77617e-14
1.10245e-14
7.41208e-11
-8.56519e-15
5.80089e-16
5.89094e-11
-3.87421e-15
6.63321e-17
4.66082e-11
-1.99611e-12
1.23082e-10
2.67164e-10
-1.20124e-12
2.26853e-11
2.25362e-10
-3.26388e-13
1.09562e-11
1.88871e-10
-1.79866e-13
1.78149e-12
1.56712e-10
-7.02165e-14
5.59603e-13
1.28554e-10
-3.65442e-14
6.86041e-14
1.0439e-10
-1.69946e-14
1.46336e-14
8.40356e-11
-8.23149e-15
1.02994e-15
6.71701e-11
-3.73583e-15
1.97626e-17
5.33846e-11
-1.64867e-15
6.77813e-17
4.22368e-11
-1.88429e-12
1.15155e-10
2.72819e-10
-1.17952e-12
2.57273e-11
2.36242e-10
-2.83678e-13
1.17164e-11
2.02047e-10
-1.62912e-13
2.11218e-12
1.70351e-10
-6.10446e-14
6.44463e-13
1.41612e-10
-3.24514e-14
8.53766e-14
1.16251e-10
-1.50637e-14
1.83801e-14
9.44102e-11
-7.36746e-15
1.33409e-15
7.60036e-11
-3.34634e-15
1.67084e-16
6.07495e-11
-1.49094e-15
3.9403e-17
4.82814e-11
-6.05779e-16
-9.80916e-18
3.8199e-11
-1.17828e-12
1.05009e-10
2.71027e-10
-9.51007e-13
2.77728e-11
2.41833e-10
-1.94189e-13
1.2208e-11
2.11727e-10
-1.28112e-13
2.42599e-12
1.81935e-10
-4.57259e-14
7.2042e-13
1.53672e-10
-2.52503e-14
1.02873e-13
1.2783e-10
-1.17363e-14
2.17957e-14
1.04949e-10
-5.8016e-15
1.83634e-15
8.52329e-11
-2.65549e-15
1.25949e-16
6.86149e-11
-1.18685e-15
1.57725e-16
5.48433e-11
-4.85121e-16
-8.01271e-17
4.35871e-11
-1.99543e-16
6.12892e-17
3.44849e-11
-3.40955e-13
9.30204e-11
2.61239e-10
-5.8401e-13
2.84426e-11
2.41115e-10
-7.51789e-14
1.23582e-11
2.16717e-10
-7.62114e-14
2.68963e-12
1.90392e-10
-2.4086e-14
7.8417e-13
1.63869e-10
-1.45789e-14
1.20237e-13
1.38492e-10
-6.73061e-15
2.50669e-14
1.15215e-10
-3.40643e-15
2.28511e-15
9.45934e-11
-1.55432e-15
2.77703e-16
7.68222e-11
-7.16772e-16
9.72892e-17
6.18436e-11
-2.82761e-16
-3.2375e-17
4.94308e-11
-1.27115e-16
5.5307e-17
3.92854e-11
-4.33054e-17
2.46974e-17
3.10815e-11
1.04377e-14
2.40656e-11
1.02226e-10
-1.94177e-15
4.78864e-11
1.20931e-10
-1.08546e-13
5.12362e-13
9.48284e-11
-3.16781e-14
7.13382e-11
1.41682e-10
-1.61728e-13
1.53857e-12
1.1122e-10
-1.07204e-13
1.56164e-12
8.65035e-11
-9.36042e-14
9.29949e-11
1.64442e-10
-2.37272e-13
3.07373e-12
1.2935e-10
-1.43872e-13
3.17412e-12
1.01141e-10
-9.2404e-14
1.99934e-13
7.98143e-11
-2.08842e-13
1.11505e-10
1.88763e-10
-3.41968e-13
5.2945e-12
1.48989e-10
-1.87825e-13
4.83999e-12
1.17278e-10
-1.16477e-13
4.26107e-13
9.2962e-11
-5.98295e-14
9.78578e-14
7.34589e-11
-4.00707e-13
1.25893e-10
2.13888e-10
-4.82045e-13
8.31211e-12
1.69764e-10
-2.37726e-13
6.51073e-12
1.34749e-10
-1.42689e-13
6.77399e-13
1.07414e-10
-6.99343e-14
1.99286e-13
8.52688e-11
-3.68189e-14
1.30063e-14
6.74532e-11
-6.88265e-13
1.35693e-10
2.38685e-10
-6.60497e-13
1.21113e-11
1.9112e-10
-2.90545e-13
8.13055e-12
1.53238e-10
-1.69341e-13
9.57976e-13
1.23023e-10
-7.9234e-14
3.04238e-13
9.82229e-11
-4.12217e-14
2.70957e-14
7.80533e-11
-1.98495e-14
3.91438e-15
6.17525e-11
-1.07489e-12
1.40686e-10
2.61648e-10
-8.70953e-13
1.64771e-11
2.1219e-10
-3.40914e-13
9.63957e-12
1.72227e-10
-1.93814e-13
1.26958e-12
1.39482e-10
-8.66771e-14
4.10948e-13
1.12172e-10
-4.47961e-14
4.20782e-14
8.96468e-11
-2.13301e-14
8.0296e-15
7.12465e-11
-1.02909e-14
2.99981e-16
5.63695e-11
-1.52689e-12
1.40954e-10
2.81031e-10
-1.08975e-12
2.10542e-11
2.31855e-10
-3.80612e-13
1.09896e-11
1.90957e-10
-2.12532e-13
1.61177e-12
1.56344e-10
-9.10632e-14
5.16465e-13
1.26853e-10
-4.70127e-14
5.84205e-14
1.02107e-10
-2.22114e-14
1.20033e-14
8.16118e-11
-1.07234e-14
7.33298e-16
6.4863e-11
-4.86956e-15
-9.95796e-19
5.13186e-11
-1.94265e-12
1.36549e-10
2.94983e-10
-1.27333e-12
2.5299e-11
2.48729e-10
-3.99109e-13
1.21229e-11
2.08435e-10
-2.21271e-13
1.97497e-12
1.72936e-10
-9.10767e-14
6.18373e-13
1.41862e-10
-4.72956e-14
7.58449e-14
1.15196e-10
-2.22221e-14
1.62995e-14
9.27342e-11
-1.07782e-14
1.02117e-15
7.41229e-11
-4.89586e-15
1.3935e-16
5.89105e-11
-2.16503e-15
1.05322e-17
4.66087e-11
-2.07398e-12
1.28244e-10
3.01813e-10
-1.34465e-12
2.87658e-11
2.61248e-10
-3.81919e-13
1.29989e-11
2.23417e-10
-2.15305e-13
2.34459e-12
1.88361e-10
-8.54722e-14
7.13576e-13
1.56583e-10
-4.49909e-14
9.45895e-14
1.2854e-10
-2.11115e-14
2.02488e-14
1.0439e-10
-1.02983e-14
1.56895e-15
8.4038e-11
-4.70185e-15
4.81801e-17
6.71713e-11
-2.08275e-15
1.41386e-16
5.33852e-11
-8.55133e-16
-6.32166e-17
4.2237e-11
-1.76509e-12
1.16741e-10
3.00312e-10
-1.25154e-12
3.09542e-11
2.67892e-10
-3.20771e-13
1.35455e-11
2.34539e-10
-1.91387e-13
2.69221e-12
2.01531e-10
-7.32484e-14
7.99009e-13
1.70224e-10
-3.95167e-14
1.1395e-13
1.41598e-10
-1.85471e-14
2.42484e-14
1.16252e-10
-9.15259e-15
1.96149e-15
9.44129e-11
-4.18628e-15
2.44764e-16
7.6005e-11
-1.87689e-15
7.30861e-17
6.07502e-11
-7.64982e-16
-2.26734e-17
4.82817e-11
-3.14367e-16
2.33861e-17
3.81992e-11
-1.01832e-12
1.0334e-10
2.90019e-10
-9.55819e-13
3.17029e-11
2.67468e-10
-2.11773e-13
1.37184e-11
2.40459e-10
-1.47201e-13
2.98775e-12
2.11237e-10
-5.38746e-14
8.70697e-13
1.81814e-10
-3.03498e-14
1.3329e-13
1.53657e-10
-1.42883e-14
2.78284e-14
1.27831e-10
-7.14433e-15
2.54682e-15
1.04952e-10
-3.29912e-15
2.15985e-16
8.52345e-11
-1.48429e-15
1.97341e-16
6.86157e-11
-6.11274e-16
-1.21681e-16
5.48436e-11
-2.51427e-16
1.27457e-16
4.35873e-11
-8.43665e-17
4.25587e-17
3.4485e-11
-2.81715e-13
8.87414e-11
2.71398e-10
-5.53028e-13
3.08544e-11
2.5938e-10
-8.10311e-14
1.34499e-11
2.40104e-10
-8.52124e-14
3.19234e-12
2.16299e-10
-2.77477e-14
9.23607e-13
1.9028e-10
-1.72637e-14
1.51283e-13
1.63856e-10
-8.07861e-15
3.1113e-14
1.38494e-10
-4.14767e-15
3.09394e-15
1.15218e-10
-1.91573e-15
3.72927e-16
9.45952e-11
-8.88774e-16
1.35461e-16
7.68231e-11
-3.54467e-16
-4.93283e-17
6.1844e-11
-1.60061e-16
9.38101e-17
4.9431e-11
-5.48828e-17
6.52116e-17
3.92855e-11
-1.85331e-17
1.30866e-17
3.10815e-11
1.82141e-14
2.56727e-11
1.09071e-10
1.03254e-14
5.13227e-11
1.29637e-10
-9.11098e-14
5.52455e-13
1.01656e-10
-1.22584e-14
7.67904e-11
1.52552e-10
-1.37351e-13
1.66598e-12
1.19753e-10
-9.88448e-14
1.68018e-12
9.31399e-11
-6.28319e-14
1.00507e-10
1.77785e-10
-2.04151e-13
3.34443e-12
1.39843e-10
-1.35533e-13
3.42916e-12
1.09344e-10
-9.06079e-14
2.17201e-13
8.62845e-11
-1.6007e-13
1.20965e-10
2.04859e-10
-2.98574e-13
5.78671e-12
1.61685e-10
-1.81107e-13
5.24963e-12
1.27268e-10
-1.16811e-13
4.65016e-13
1.00876e-10
-6.31038e-14
1.06179e-13
7.97114e-11
-3.25218e-13
1.37066e-10
2.32951e-10
-4.28291e-13
9.12644e-12
1.84878e-10
-2.35185e-13
7.08896e-12
1.46737e-10
-1.46567e-13
7.42713e-13
1.16965e-10
-7.56369e-14
2.16876e-13
9.28486e-11
-4.06154e-14
1.43232e-14
7.34485e-11
-5.75473e-13
1.48231e-10
2.60794e-10
-5.99134e-13
1.33461e-11
2.08793e-10
-2.9569e-13
8.88433e-12
1.67396e-10
-1.7852e-13
1.05392e-12
1.34381e-10
-8.80074e-14
3.32511e-13
1.0729e-10
-4.65441e-14
2.97462e-14
8.52574e-11
-2.28e-14
4.36585e-15
6.74518e-11
-9.18144e-13
1.54277e-10
2.86756e-10
-8.105e-13
1.82344e-11
2.32502e-10
-3.58329e-13
1.05732e-11
1.88695e-10
-2.10301e-13
1.40138e-12
1.52811e-10
-9.9148e-14
4.50344e-13
1.22889e-10
-5.18703e-14
4.65293e-14
9.82105e-11
-2.50924e-14
8.67505e-15
7.80522e-11
-1.21636e-14
4.00178e-16
6.17541e-11
-1.34054e-12
1.55137e-10
3.08841e-10
-1.0484e-12
2.33558e-11
2.54728e-10
-4.1577e-13
1.20918e-11
2.09773e-10
-2.38459e-13
1.7821e-12
1.7174e-10
-1.07686e-13
5.67893e-13
1.39342e-10
-5.60481e-14
6.44288e-14
1.12159e-10
-2.68391e-14
1.33807e-14
8.9646e-11
-1.3009e-14
7.07597e-16
7.12483e-11
-5.92729e-15
8.72184e-17
5.63705e-11
-1.77875e-12
1.51013e-10
3.24968e-10
-1.27607e-12
2.81696e-11
2.73918e-10
-4.57066e-13
1.33851e-11
2.29518e-10
-2.58376e-13
2.18781e-12
1.90418e-10
-1.12132e-13
6.81583e-13
1.562e-10
-5.83973e-14
8.39525e-14
1.26838e-10
-2.77915e-14
1.77999e-14
1.02106e-10
-1.34924e-14
1.26613e-15
8.1614e-11
-6.15688e-15
1.57251e-17
6.48642e-11
-2.71993e-15
8.82707e-17
5.13191e-11
-2.09457e-12
1.42214e-10
3.33214e-10
-1.43666e-12
3.204e-11
2.88334e-10
-4.69146e-13
1.43806e-11
2.46559e-10
-2.64996e-13
2.59832e-12
2.07861e-10
-1.10902e-13
7.88415e-13
1.72792e-10
-5.82286e-14
1.04574e-13
1.41846e-10
-2.76047e-14
2.25049e-14
1.15196e-10
-1.3486e-14
1.6042e-15
9.27369e-11
-6.15954e-15
2.26938e-16
7.41243e-11
-2.73809e-15
3.87989e-17
5.89112e-11
-1.12541e-15
-9.0671e-18
4.6609e-11
-2.05043e-12
1.29782e-10
3.32192e-10
-1.44731e-12
3.45306e-11
2.96244e-10
-4.36072e-13
1.50174e-11
2.59345e-10
-2.53093e-13
2.98714e-12
2.22837e-10
-1.02644e-13
8.84486e-13
1.88219e-10
-5.47845e-14
1.26192e-13
1.56566e-10
-2.59948e-14
2.676e-14
1.28541e-10
-1.27925e-14
2.26041e-15
1.04393e-10
-5.88376e-15
1.24736e-16
8.40395e-11
-2.6198e-15
2.23637e-16
6.71721e-11
-1.08247e-15
-1.18817e-16
5.33856e-11
-4.38789e-16
8.01185e-17
4.22372e-11
-1.59839e-12
1.14762e-10
3.21336e-10
-1.27415e-12
3.52959e-11
2.96288e-10
-3.53244e-13
1.52132e-11
2.66366e-10
-2.19915e-13
3.31548e-12
2.33989e-10
-8.64765e-14
9.65262e-13
2.01397e-10
-4.74822e-14
1.47663e-13
1.70207e-10
-2.25883e-14
3.09164e-14
1.41599e-10
-1.12701e-14
2.76147e-15
1.16256e-10
-5.20003e-15
3.38412e-16
9.44147e-11
-2.34891e-15
1.15456e-16
7.60059e-11
-9.62203e-16
-4.13791e-17
6.07506e-11
-3.98714e-16
6.53992e-17
4.82819e-11
-1.31877e-16
3.06354e-17
3.81992e-11
-8.75847e-13
9.85189e-11
3.0127e-10
-9.23717e-13
3.43531e-11
2.8774e-10
-2.2647e-13
1.49238e-11
2.66409e-10
-1.64774e-13
3.54593e-12
2.39981e-10
-6.23247e-14
1.02496e-12
2.11117e-10
-3.59019e-14
1.67762e-13
1.81798e-10
-1.71653e-14
3.45353e-14
1.5366e-10
-8.70326e-15
3.43189e-15
1.27835e-10
-4.06206e-15
3.39507e-16
1.04954e-10
-1.84316e-15
2.34394e-16
8.52355e-11
-7.65554e-16
-1.42699e-16
6.86161e-11
-3.15841e-16
1.99237e-16
5.48438e-11
-1.06336e-16
1.00099e-16
4.35874e-11
-3.89355e-17
9.93066e-18
3.44851e-11
-2.47262e-13
8.20153e-11
2.73445e-10
-5.06908e-13
3.18351e-11
2.70924e-10
-8.77688e-14
1.41215e-11
2.58796e-10
-9.25038e-14
3.64085e-12
2.39748e-10
-3.14348e-14
1.05688e-12
2.16197e-10
-2.00613e-14
1.84656e-13
1.90267e-10
-9.54551e-15
3.76326e-14
1.63859e-10
-4.98489e-15
4.06185e-15
1.38498e-10
-2.33574e-15
4.87815e-16
1.1522e-10
-1.09135e-15
1.77895e-16
9.45963e-11
-4.41615e-16
-7.0837e-17
7.68236e-11
-1.99579e-16
1.38574e-16
6.18442e-11
-6.89942e-17
1.05576e-16
4.94311e-11
-2.35214e-17
3.42785e-17
3.92855e-11
-1.66338e-17
8.22335e-17
3.10816e-11
-1.30613e-15
-4.74519e-15
7.3028e-15
2.44368e-14
2.72517e-11
1.15794e-10
2.03594e-14
5.47503e-11
1.38318e-10
-7.56284e-14
5.91698e-13
1.08464e-10
3.93282e-15
8.23005e-11
1.63535e-10
-1.153e-13
1.79257e-12
1.28375e-10
-8.93543e-14
1.79985e-12
9.98465e-11
-3.6616e-14
1.08187e-10
1.91425e-10
-1.73431e-13
3.61599e-12
1.50572e-10
-1.24958e-13
3.6897e-12
1.17733e-10
-8.69664e-14
2.34638e-13
9.29016e-11
-1.17934e-13
1.30734e-10
2.21482e-10
-2.5701e-13
6.28668e-12
1.74801e-10
-1.70603e-13
5.67189e-12
1.37589e-10
-1.14538e-13
5.04982e-13
1.09054e-10
-6.49844e-14
1.14657e-13
8.61717e-11
-2.58703e-13
1.48692e-10
2.52814e-10
-3.74167e-13
9.95941e-12
2.00633e-10
-2.26762e-13
7.68976e-12
1.59237e-10
-1.46989e-13
8.10218e-13
1.26923e-10
-7.97749e-14
2.35334e-13
1.00751e-10
-4.38275e-14
1.56148e-14
7.9699e-11
-4.74796e-13
1.61389e-10
2.84035e-10
-5.32664e-13
1.463e-11
2.27381e-10
-2.9251e-13
9.67473e-12
1.82289e-10
-1.83378e-13
1.1549e-12
1.4633e-10
-9.51852e-14
3.61909e-13
1.16827e-10
-5.13427e-14
3.27253e-14
9.2835e-11
-2.56353e-14
4.67487e-15
7.34465e-11
-7.74583e-13
1.68549e-10
3.13313e-10
-7.35965e-13
2.00645e-11
2.54001e-10
-3.64691e-13
1.15555e-11
2.06128e-10
-2.21729e-13
1.54078e-12
1.6692e-10
-1.10127e-13
4.92213e-13
1.34233e-10
-5.85696e-14
5.10681e-14
1.07275e-10
-2.88199e-14
9.65596e-15
8.52558e-11
-1.40701e-14
3.77053e-16
6.74533e-11
-1.15432e-12
1.70156e-10
3.3847e-10
-9.77194e-13
2.58082e-11
2.79111e-10
-4.371e-13
1.32649e-11
2.29831e-10
-2.58799e-13
1.96562e-12
1.88151e-10
-1.23185e-13
6.22439e-13
1.52655e-10
-6.48995e-14
7.11632e-14
1.22873e-10
-3.15757e-14
1.4475e-14
9.82094e-11
-1.53741e-14
9.15189e-16
7.80541e-11
-7.04497e-15
-3.40428e-18
6.17551e-11
-1.58468e-12
1.66256e-10
3.57114e-10
-1.23203e-12
3.1214e-11
3.00939e-10
-4.99849e-13
1.47296e-11
2.52133e-10
-2.9002e-13
2.41751e-12
2.09169e-10
-1.32611e-13
7.4946e-13
1.71579e-10
-6.96245e-14
9.25732e-14
1.39325e-10
-3.35801e-14
1.97819e-14
1.12158e-10
-1.63701e-14
1.24301e-15
8.96484e-11
-7.49091e-15
1.84996e-16
7.12496e-11
-3.31898e-15
8.55435e-18
5.63711e-11
-1.96992e-12
1.5725e-10
3.67062e-10
-1.44964e-12
3.56207e-11
3.1753e-10
-5.38804e-13
1.58762e-11
2.71497e-10
-3.09622e-13
2.87647e-12
2.28874e-10
-1.36564e-13
8.69024e-13
1.90256e-10
-7.18989e-14
1.15648e-13
1.56182e-10
-3.45257e-14
2.46319e-14
1.26838e-10
-1.68803e-14
1.92653e-15
1.02109e-10
-7.74869e-15
4.34114e-17
8.16155e-11
-3.43668e-15
1.85492e-16
6.48649e-11
-1.42413e-15
-8.39267e-17
5.13195e-11
-2.15135e-12
1.43841e-10
3.66727e-10
-1.56314e-12
3.84164e-11
3.26953e-10
-5.38776e-13
1.66101e-11
2.86207e-10
-3.11763e-13
3.30929e-12
2.45906e-10
-1.3324e-13
9.77094e-13
2.07703e-10
-7.09039e-14
1.395e-13
1.72773e-10
-3.39915e-14
2.96774e-14
1.41847e-10
-1.67537e-14
2.36435e-15
1.15199e-10
-7.70573e-15
3.28677e-16
9.27386e-11
-3.44657e-15
7.38948e-17
7.41251e-11
-1.42177e-15
-2.18953e-17
5.89115e-11
-5.80186e-16
2.16066e-17
4.66092e-11
-1.94735e-12
1.27413e-10
3.55418e-10
-1.49718e-12
3.9306e-11
3.2764e-10
-4.84786e-13
1.6856e-11
2.94537e-10
-2.91177e-13
3.67724e-12
2.58726e-10
-1.21285e-13
1.06823e-12
2.22688e-10
-6.58249e-14
1.63472e-13
1.882e-10
-3.16598e-14
3.41539e-14
1.56568e-10
-1.57527e-14
3.12738e-15
1.28545e-10
-7.30989e-15
2.29327e-16
1.04395e-10
-3.27694e-15
2.81015e-16
8.40405e-11
-1.36353e-15
-1.83272e-16
6.71725e-11
-5.53749e-16
1.68073e-16
5.33857e-11
-1.84516e-16
5.62191e-17
4.22373e-11
-1.41587e-12
1.09332e-10
3.33784e-10
-1.24763e-12
3.82131e-11
3.18743e-10
-3.79008e-13
1.65437e-11
2.9511e-10
-2.46378e-13
3.93445e-12
2.65829e-10
-1.00185e-13
1.13585e-12
2.33856e-10
-5.6147e-14
1.85867e-13
2.01379e-10
-2.71485e-14
3.83251e-14
1.7021e-10
-1.3727e-14
3.75492e-15
1.41603e-10
-6.40379e-15
4.53679e-16
1.16258e-10
-2.91823e-15
1.63654e-16
9.44158e-11
-1.20382e-15
-6.32998e-17
7.60064e-11
-5.02869e-16
1.13522e-16
6.07508e-11
-1.67398e-16
8.25805e-17
4.8282e-11
-5.95239e-17
1.96421e-17
3.81993e-11
-7.53966e-13
9.10228e-11
3.0352e-10
-8.62276e-13
3.54194e-11
3.00559e-10
-2.37496e-13
1.56659e-11
2.87148e-10
-1.79278e-13
4.04365e-12
2.65998e-10
-7.06368e-14
1.17245e-12
2.39872e-10
-4.16762e-14
2.04815e-13
2.11102e-10
-2.02973e-14
4.17601e-14
1.81802e-10
-1.0464e-14
4.49691e-15
1.53664e-10
-4.94696e-15
4.84946e-16
1.27837e-10
-2.26942e-15
2.61605e-16
1.04955e-10
-9.51754e-16
-1.6219e-16
8.5236e-11
-3.94822e-16
2.50725e-16
6.86163e-11