/*--------------------------------*- C++ -*----------------------------------*\
  =========                 |
  \\      /  F ield         | OpenFOAM: The Open Source CFD Toolbox
   \\    /   O peration     | Website:  https://openfoam.org
    \\  /    A nd           | Version:  7
     \\/     M anipulation  |
\*---------------------------------------------------------------------------*/
FoamFile
{
    version     2.0;
    format      ascii;
    class       volVectorField;
    location    "300";
    object      U;
}
// * * * * * * * * * * * * * * * * * * * * * * * * * * * * * * * * * * * * * //

dimensions      [0 1 -1 0 0 0 0];

internalField   nonuniform List<vector> 
43941
(
(0.62591 0.000252504 0.00178812)
(0.628524 -0.000593412 0.00200344)
(0.62632 0.000202087 0.00560872)
(0.646953 -0.000189719 9.05065e-06)
(0.629244 -0.000372333 0.00204017)
(0.628865 -0.000638466 0.00627527)
(0.647283 -0.000495429 1.78001e-05)
(0.627172 6.55634e-05 0.00988332)
(0.646905 -0.000191882 6.38332e-05)
(0.627368 -2.78167e-05 0.000106455)
(0.630603 -0.000725096 0.00207454)
(0.629587 -0.000421 0.00639346)
(0.647449 -0.00066166 1.8113e-05)
(0.629562 -0.000766399 0.0110081)
(0.647228 -0.000498144 9.22488e-05)
(0.627413 -8.8832e-05 0.000108153)
(0.628483 -0.000153237 0.0147294)
(0.646808 -0.000198314 0.000228168)
(0.627369 -2.76958e-05 0.000340357)
(0.626365 -1.82956e-05 1.17865e-05)
(0.631506 -0.000576849 0.00207822)
(0.630941 -0.000762273 0.00650212)
(0.647694 -0.000851868 2.27863e-05)
(0.630286 -0.000546386 0.0112255)
(0.647393 -0.000664144 9.39734e-05)
(0.627458 -0.000154995 0.000108759)
(0.630616 -0.000976849 0.0162627)
(0.647116 -0.000506036 0.000280059)
(0.627414 -8.86607e-05 0.000345748)
(0.626368 -5.32086e-05 1.17699e-05)
(0.6302 -0.000403842 0.0200352)
(0.646628 -0.000210057 0.000534808)
(0.627371 -2.75202e-05 0.000616792)
(0.626363 -1.8304e-05 3.91612e-05)
(0.62504 -5.67721e-06 5.68354e-06)
(0.632396 -0.000587602 0.00208384)
(0.631843 -0.000608995 0.00651506)
(0.647864 -0.000914945 2.42627e-05)
(0.631627 -0.000857709 0.0114193)
(0.647636 -0.000853363 0.000108787)
(0.627533 -0.000220776 0.000109413)
(0.631331 -0.000759662 0.0165911)
(0.647279 -0.000671107 0.000285415)
(0.627459 -0.000154975 0.000347699)
(0.626374 -8.77754e-05 1.17766e-05)
(0.631993 -0.00122338 0.0218318)
(0.646911 -0.000520585 0.000612097)
(0.627416 -8.83965e-05 0.000626293)
(0.626366 -5.32189e-05 3.91052e-05)
(0.625041 -1.81706e-05 5.71464e-06)
(0.632155 -0.000602787 0.0256309)
(0.646316 -0.000225922 0.00105709)
(0.627374 -2.72339e-05 0.000945996)
(0.626358 -1.83274e-05 7.56411e-05)
(0.62504 -5.67254e-06 1.82767e-05)
(0.624974 -3.3449e-06 6.77493e-07)
(0.633057 -0.000474498 0.00208382)
(0.632732 -0.00061434 0.00653337)
(0.64804 -0.000954232 2.72094e-05)
(0.632527 -0.000690132 0.0114474)
(0.647807 -0.00091625 0.000113647)
(0.627614 -0.000276094 0.000109638)
(0.632645 -0.00102167 0.0168817)
(0.64752 -0.00085782 0.000311853)
(0.627534 -0.000220772 0.000349807)
(0.626384 -0.00012268 1.18792e-05)
(0.632684 -0.00103821 0.0222683)
(0.64707 -0.000684102 0.000623492)
(0.627461 -0.000155015 0.000629846)
(0.626372 -8.7768e-05 3.91305e-05)
(0.625045 -3.23629e-05 5.73289e-06)
(0.633577 -0.00142012 0.0274708)
(0.646561 -0.000540775 0.00115785)
(0.627417 -8.79542e-05 0.000959714)
(0.626361 -5.32476e-05 7.55399e-05)
(0.625041 -1.81631e-05 1.8377e-05)
(0.624974 -1.02777e-05 6.76539e-07)
(0.634036 -0.000680783 0.031314)
(0.645804 -0.000241433 0.00187273)
(0.627374 -2.67131e-05 0.00132973)
(0.626349 -1.8374e-05 0.000123492)
(0.625039 -5.66206e-06 3.34483e-05)
(0.624973 -3.34498e-06 2.22441e-06)
(0.624945 -1.56805e-06 1.97463e-07)
(0.633582 -0.000400205 0.00208424)
(0.633392 -0.00049786 0.00653393)
(0.648179 -0.000927405 2.90984e-05)
(0.633412 -0.000681764 0.0114821)
(0.647982 -0.000955198 0.000122971)
(0.627708 -0.00032552 0.00010989)
(0.633539 -0.000830411 0.016932)
(0.64769 -0.000920033 0.000321179)
(0.627614 -0.000276126 0.00035057)
(0.626399 -0.000155401 1.19673e-05)
(0.633947 -0.00124025 0.0226607)
(0.647307 -0.000866237 0.000663413)
(0.627536 -0.000220822 0.000633695)
(0.626382 -0.00012266 3.94502e-05)
(0.62505 -4.76594e-05 5.74024e-06)
(0.634227 -0.00131988 0.0279917)
(0.646713 -0.000702889 0.00117808)
(0.627463 -0.000155116 0.000965097)
(0.626367 -8.7757e-05 7.5599e-05)
(0.625044 -3.23594e-05 1.84346e-05)
(0.624975 -1.78156e-05 6.75154e-07)
(0.635123 -0.00148354 0.0329745)
(0.646003 -0.000561353 0.00199015)
(0.627416 -8.71534e-05 0.00134703)
(0.626352 -5.33039e-05 0.000123365)
(0.625041 -1.81465e-05 3.36293e-05)
(0.624974 -1.0278e-05 2.22069e-06)
(0.624945 -4.91382e-06 1.96041e-07)
(0.635431 -0.000625942 0.0368366)
(0.645015 -0.00025024 0.00303707)
(0.627365 -2.57616e-05 0.00176773)
(0.626333 -1.84483e-05 0.000185884)
(0.625038 -5.64216e-06 5.18153e-05)
(0.624973 -3.34541e-06 4.2149e-06)
(0.624945 -1.56831e-06 6.34504e-07)
(0.624969 -8.33324e-07 1.4542e-08)
(0.633958 -0.000305267 0.00208367)
(0.633916 -0.000420593 0.00653564)
(0.648304 -0.000877822 3.1011e-05)
(0.63407 -0.000556485 0.0114853)
(0.648122 -0.000928298 0.000128995)
(0.627804 -0.00036165 0.00010995)
(0.634414 -0.000798577 0.0169871)
(0.647865 -0.000958092 0.000337809)
(0.627709 -0.000325556 0.000351409)
(0.626418 -0.000185785 1.21019e-05)
(0.634826 -0.00102185 0.0227422)
(0.647477 -0.000927171 0.000678743)
(0.627616 -0.000276239 0.000635201)
(0.626397 -0.00015538 3.97293e-05)
(0.625057 -6.38561e-05 5.74905e-06)
(0.63541 -0.00146937 0.0284783)
(0.646943 -0.000878299 0.00123306)
(0.627537 -0.000220928 0.000970959)
(0.626377 -0.000122622 7.61538e-05)
(0.62505 -4.76575e-05 1.84601e-05)
(0.624976 -2.59587e-05 6.79002e-07)
(0.635725 -0.0015231 0.0335365)
(0.646144 -0.000723696 0.00202168)
(0.627461 -0.000155189 0.0013543)
(0.626358 -8.77388e-05 0.000123482)
(0.625044 -3.23517e-05 3.3731e-05)
(0.624975 -1.78152e-05 2.21681e-06)
(0.624946 -8.61055e-06 1.99067e-07)
(0.636251 -0.00138378 0.0381664)
(0.645164 -0.000573676 0.00316076)
(0.627406 -8.56965e-05 0.00178698)
(0.626336 -5.33906e-05 0.000185784)
(0.62504 -1.81152e-05 5.20827e-05)
(0.624974 -1.02789e-05 4.20675e-06)
(0.624945 -4.91363e-06 6.30794e-07)
(0.624969 -2.55622e-06 1.60691e-08)
(0.63589 -0.00048837 0.0419002)
(0.643862 -0.000247826 0.00456134)
(0.627335 -2.41974e-05 0.00225846)
(0.626307 -1.85414e-05 0.000266226)
(0.625037 -5.60846e-06 7.36614e-05)
(0.624973 -3.34641e-06 6.75701e-06)
(0.624945 -1.56867e-06 1.16001e-06)
(0.624969 -8.33054e-07 4.85589e-08)
(0.624983 -3.90093e-07 2.86321e-09)
(0.634226 -0.000223317 0.0020832)
(0.634292 -0.000323389 0.0065341)
(0.648406 -0.000802736 3.23723e-05)
(0.634592 -0.000471682 0.0114895)
(0.648247 -0.00087862 0.000135052)
(0.627901 -0.000387191 0.000109991)
(0.635067 -0.000658144 0.016995)
(0.648005 -0.000930915 0.000348713)
(0.627805 -0.000361699 0.000351643)
(0.626442 -0.000212006 1.22262e-05)
(0.635683 -0.000958905 0.0228221)
(0.647651 -0.000963587 0.000703938)
(0.62771 -0.000325669 0.000636818)
(0.626416 -0.00018576 4.01527e-05)
(0.625067 -8.04745e-05 5.75147e-06)
(0.636263 -0.0012329 0.0286002)
(0.647111 -0.000937546 0.00125647)
(0.627617 -0.000276458 0.000973425)
(0.626392 -0.000155336 7.66518e-05)
(0.625057 -6.38548e-05 1.84887e-05)
(0.624978 -3.46074e-05 6.79963e-07)
(0.636802 -0.001647 0.0340929)
(0.646362 -0.000891065 0.00209244)
(0.627535 -0.000221022 0.00136233)
(0.626368 -0.000122553 0.0001243)
(0.625049 -4.7653e-05 3.37822e-05)
(0.624976 -2.5958e-05 2.22826e-06)
(0.624946 -1.26696e-05 1.96565e-07)
(0.6368 -0.00158925 0.0387167)
(0.645291 -0.000739049 0.00320474)
(0.627451 -0.000154971 0.00179591)
(0.626342 -8.77029e-05 0.000185999)
(0.625043 -3.23367e-05 5.22323e-05)
(0.624974 -1.78145e-05 4.20109e-06)
(0.624946 -8.61047e-06 6.39555e-07)
(0.62497 -4.46157e-06 1.39888e-08)
(0.636509 -0.00116495 0.0428481)
(0.643966 -0.000569953 0.00468081)
(0.627373 -8.32522e-05 0.00227733)
(0.626309 -5.34897e-05 0.000266239)
(0.625039 -1.80623e-05 7.40065e-05)
(0.624973 -1.02805e-05 6.74333e-06)
(0.624945 -4.91318e-06 1.15529e-06)
(0.624969 -2.55627e-06 5.27298e-08)
(0.624983 -1.23925e-06 3.69832e-10)
(0.635032 -0.000336296 0.0461603)
(0.642269 -0.000234328 0.00639557)
(0.627263 -2.2038e-05 0.00279697)
(0.626266 -1.86225e-05 0.000367374)
(0.625034 -5.55834e-06 9.91843e-05)
(0.624972 -3.34845e-06 9.97695e-06)
(0.624945 -1.56917e-06 1.79573e-06)
(0.624969 -8.3263e-07 9.42467e-08)
(0.624983 -3.9046e-07 8.94772e-09)
(0.624992 -2.01464e-07 7.0465e-10)
(0.634406 -0.000145447 0.00208264)
(0.634559 -0.000239531 0.00653279)
(0.648489 -0.000719417 3.34518e-05)
(0.634967 -0.000368711 0.0114877)
(0.648348 -0.000803495 0.000139368)
(0.627994 -0.000399607 0.000109961)
(0.635585 -0.000560276 0.0170029)
(0.64813 -0.000880946 0.000359532)
(0.627902 -0.000387241 0.000351812)
(0.62647 -0.000233588 1.23591e-05)
(0.636327 -0.000798428 0.0228375)
(0.647791 -0.000935883 0.000720751)
(0.627806 -0.000361837 0.000637371)
(0.62644 -0.000211985 4.05455e-05)
(0.625079 -9.69362e-05 5.7564e-06)
(0.637093 -0.00113795 0.028709)
(0.647284 -0.000971555 0.00129151)
(0.627711 -0.000325888 0.000976025)
(0.626411 -0.00018571 7.73979e-05)
(0.625067 -8.04738e-05 1.84983e-05)
(0.624982 -4.36417e-05 6.86263e-07)
(0.637615 -0.00141666 0.0342609)
(0.646528 -0.000948979 0.00212642)
(0.627614 -0.000276754 0.00136598)
(0.626382 -0.000155254 0.000125056)
(0.625056 -6.38518e-05 3.38355e-05)
(0.624978 -3.46065e-05 2.23163e-06)
(0.624947 -1.70641e-05 1.99833e-07)
(0.637751 -0.00172398 0.0393012)
(0.645492 -0.000898706 0.00329057)
(0.627523 -0.000220887 0.00180602)
(0.626352 -0.000122432 0.000187102)
(0.625048 -4.76438e-05 5.23166e-05)
(0.624976 -2.59565e-05 4.21952e-06)
(0.624946 -1.26696e-05 6.32443e-07)
(0.62497 -6.54732e-06 1.62182e-08)
(0.637004 -0.00151526 0.0433374)
(0.644076 -0.000740621 0.00473651)
(0.627418 -0.000154004 0.00228729)
(0.626315 -8.76234e-05 0.000266608)
(0.625042 -3.23104e-05 7.42022e-05)
(0.624974 -1.78133e-05 6.7368e-06)
(0.624946 -8.61024e-06 1.16883e-06)
(0.62497 -4.46159e-06 4.68223e-08)
(0.624983 -2.16565e-06 2.92794e-09)
(0.635504 -0.000907669 0.0467637)
(0.642334 -0.000547847 0.00650325)
(0.627299 -7.97023e-05 0.00281311)
(0.626268 -5.35478e-05 0.000367597)
(0.625036 -1.79828e-05 9.95749e-05)
(0.624973 -1.02833e-05 9.95735e-06)
(0.624945 -4.91229e-06 1.79146e-06)
(0.624969 -2.5564e-06 1.00072e-07)
(0.624983 -1.23934e-06 1.85702e-09)
(0.624992 -5.97464e-07 2.79711e-09)
(0.632668 -0.000213601 0.0492697)
(0.640181 -0.000213521 0.00841986)
(0.627121 -1.96318e-05 0.00337098)
(0.626203 -1.86436e-05 0.000490704)
(0.625029 -5.49342e-06 0.000128495)
(0.624971 -3.35174e-06 1.40065e-05)
(0.624945 -1.56951e-06 2.55128e-06)
(0.624969 -8.31987e-07 1.53961e-07)
(0.624983 -3.91141e-07 1.58678e-08)
(0.624992 -2.01166e-07 2.74337e-09)
(0.624997 -7.89231e-08 -4.29081e-10)
(0.634525 -7.79115e-05 0.00208216)
(0.63474 -0.000160092 0.00653113)
(0.648553 -0.000632019 3.41993e-05)
(0.635234 -0.000280038 0.0114859)
(0.648431 -0.000720132 0.000142781)
(0.62808 -0.000400626 0.00010991)
(0.635958 -0.00044729 0.0170011)
(0.648232 -0.000805668 0.000367263)
(0.627995 -0.000399659 0.000351749)
(0.6265 -0.000249478 1.24732e-05)
(0.636837 -0.000682709 0.0228501)
(0.647916 -0.000885374 0.000737165)
(0.627903 -0.000387377 0.000637788)
(0.626467 -0.000233569 4.09649e-05)
(0.625094 -0.000112639 5.75518e-06)
(0.637721 -0.000957145 0.0287355)
(0.647424 -0.000943178 0.00131541)
(0.627806 -0.000362101 0.000977057)
(0.626435 -0.000211939 7.80961e-05)
(0.625079 -9.69359e-05 1.85149e-05)
(0.624986 -5.28775e-05 6.89194e-07)
(0.638405 -0.00129876 0.0344013)
(0.646698 -0.000980223 0.00217254)
(0.627708 -0.000326198 0.00136977)
(0.626402 -0.000185617 0.000126169)
(0.625066 -8.04719e-05 3.38582e-05)
(0.624982 -4.36406e-05 2.25094e-06)
(0.624949 -2.17736e-05 1.96762e-07)
(0.63851 -0.00153312 0.0395138)
(0.645653 -0.000956913 0.00333752)
(0.627602 -0.000276975 0.00181103)
(0.626366 -0.000155111 0.000188158)
(0.625056 -6.38456e-05 5.23985e-05)
(0.624978 -3.46046e-05 4.22626e-06)
(0.624947 -1.7064e-05 6.42053e-07)
(0.62497 -8.8188e-06 1.37583e-08)
(0.637818 -0.00168814 0.0438992)
(0.644255 -0.000894484 0.00483468)
(0.627488 -0.000220121 0.00229907)
(0.626325 -0.000122225 0.000268016)
(0.625047 -4.7627e-05 7.43256e-05)
(0.624976 -2.5954e-05 6.76142e-06)
(0.624946 -1.26694e-05 1.15822e-06)
(0.62497 -6.54732e-06 5.32151e-08)
(0.624983 -3.1922e-06 4.94821e-11)
(0.635942 -0.00134514 0.0471628)
(0.642426 -0.000723596 0.00656807)
(0.627343 -0.000151809 0.00282321)
(0.626273 -8.74485e-05 0.000368186)
(0.625039 -3.22682e-05 9.98072e-05)
(0.624974 -1.78114e-05 9.95151e-06)
(0.624946 -8.60979e-06 1.80859e-06)
(0.62497 -4.46163e-06 9.12627e-08)
(0.624983 -2.16573e-06 9.10075e-09)
(0.624992 -1.04346e-06 5.79577e-10)
(0.633029 -0.000676999 0.0496156)
(0.640218 -0.000510864 0.00851227)
(0.627154 -7.53979e-05 0.00338287)
(0.626205 -5.34785e-05 0.000491198)
(0.625031 -1.78774e-05 0.00012888)
(0.624972 -1.02875e-05 1.39828e-05)
(0.624945 -4.91073e-06 2.54946e-06)
(0.624969 -2.55666e-06 1.60278e-07)
(0.624983 -1.23946e-06 5.24893e-09)
(0.624992 -5.97476e-07 8.66471e-09)
(0.624997 -2.6358e-07 -2.17587e-09)
(0.628859 -0.000132974 0.0509394)
(0.637597 -0.000189725 0.0104503)
(0.626878 -1.75325e-05 0.00395641)
(0.626113 -1.85592e-05 0.000634952)
(0.625021 -5.42182e-06 0.000161493)
(0.62497 -3.35632e-06 1.89566e-05)
(0.624945 -1.56955e-06 3.43344e-06)
(0.624969 -8.31332e-07 2.31423e-07)
(0.624983 -3.92291e-07 2.43135e-08)
(0.624992 -2.0061e-07 6.01883e-09)
(0.624997 -7.91207e-08 -1.40921e-09)
(0.625 -4.52172e-08 9.61843e-10)
(0.634601 -1.94028e-05 0.00208173)
(0.634859 -9.12276e-05 0.00652967)
(0.648601 -0.000547071 3.47264e-05)
(0.635414 -0.000196643 0.0114833)
(0.648496 -0.000632696 0.00014514)
(0.628156 -0.000390774 0.000109839)
(0.636222 -0.000350242 0.0169988)
(0.648315 -0.000722153 0.000373342)
(0.62808 -0.000400677 0.000351615)
(0.626533 -0.000259382 1.25759e-05)
(0.637204 -0.000556008 0.0228488)
(0.648018 -0.000809808 0.000748939)
(0.627996 -0.000399798 0.000637777)
(0.626498 -0.000249462 4.13258e-05)
(0.625111 -0.00012687 5.75766e-06)
(0.638219 -0.000821818 0.0287542)
(0.647549 -0.000891932 0.00133827)
(0.627903 -0.000387639 0.000977853)
(0.626463 -0.000233529 7.88391e-05)
(0.625094 -0.000112639 1.85129e-05)
(0.624991 -6.20741e-05 6.97138e-07)
(0.639011 -0.00110412 0.0344428)
(0.646838 -0.000951408 0.00220482)
(0.627803 -0.000362498 0.00137149)
(0.626426 -0.000211853 0.00012722)
(0.625079 -9.69349e-05 3.38909e-05)
(0.624986 -5.28763e-05 2.26046e-06)
(0.624951 -2.67263e-05 2.00492e-07)
(0.63925 -0.00140978 0.0396848)
(0.645819 -0.000985936 0.00339569)
(0.627694 -0.000326483 0.00181619)
(0.626386 -0.000185453 0.000189675)
(0.625065 -8.04679e-05 5.24411e-05)
(0.624981 -4.36383e-05 4.25891e-06)
(0.624949 -2.17735e-05 6.33058e-07)
(0.624971 -1.12609e-05 1.64248e-08)
(0.638512 -0.00156592 0.0441457)
(0.644409 -0.000955781 0.00489603)
(0.627566 -0.000276795 0.00230553)
(0.626339 -0.000154868 0.000269416)
(0.625054 -6.3834e-05 7.44383e-05)
(0.624978 -3.46012e-05 6.77304e-06)
(0.624947 -1.70639e-05 1.17345e-06)
(0.62497 -8.8188e-06 4.60137e-08)
(0.624983 -4.30521e-06 3.24211e-09)
(0.63662 -0.00156327 0.0476594)
(0.642581 -0.000873977 0.00667394)
(0.62741 -0.000218242 0.00283595)
(0.626283 -0.000121876 0.000369914)
(0.625044 -4.75986e-05 9.99696e-05)
(0.624975 -2.595e-05 9.98053e-06)
(0.624946 -1.26692e-05 1.79611e-06)
(0.62497 -6.54733e-06 1.00967e-07)
(0.624983 -3.19238e-06 7.90795e-10)
(0.624992 -1.52877e-06 3.16302e-09)
(0.633404 -0.0011376 0.0499186)
(0.640293 -0.000688586 0.00858241)
(0.627197 -0.000148217 0.00339219)
(0.62621 -8.71002e-05 0.000492065)
(0.625034 -3.22068e-05 0.000129129)
(0.624972 -1.78085e-05 1.39787e-05)
(0.624946 -8.60899e-06 2.56787e-06)
(0.62497 -4.46166e-06 1.49708e-07)
(0.624983 -2.16584e-06 1.59637e-08)
(0.624992 -1.04353e-06 2.41449e-09)
(0.624997 -4.5982e-07 -4.19568e-10)
(0.629133 -0.000502263 0.0511189)
(0.637616 -0.00046506 0.0105273)
(0.626908 -7.11053e-05 0.00396372)
(0.626114 -5.31919e-05 0.000635716)
(0.625023 -1.77557e-05 0.000161816)
(0.62497 -1.02928e-05 1.89317e-05)
(0.624945 -4.90834e-06 3.43437e-06)
(0.624969 -2.55712e-06 2.36436e-07)
(0.624983 -1.23963e-06 1.1549e-08)
(0.624992 -5.9747e-07 1.4808e-08)
(0.624997 -2.63685e-07 -6.36698e-09)
(0.625 -1.19734e-07 2.6177e-09)
(0.623919 -8.78559e-05 0.0509948)
(0.63458 -0.000166075 0.012264)
(0.626502 -1.61872e-05 0.00451463)
(0.625988 -1.83492e-05 0.000794949)
(0.625008 -5.35699e-06 0.00019765)
(0.624967 -3.36165e-06 2.48815e-05)
(0.624945 -1.56907e-06 4.44597e-06)
(0.624969 -8.30756e-07 3.30455e-07)
(0.624983 -3.93722e-07 3.45376e-08)
(0.624992 -1.99672e-07 9.9645e-09)
(0.624997 -7.95429e-08 -2.69419e-09)
(0.625 -4.50445e-08 3.45417e-09)
(0.625002 -1.77389e-08 1.02041e-09)
(0.634647 2.96263e-05 0.00208138)
(0.634934 -3.15926e-05 0.00652836)
(0.648635 -0.000467106 3.50764e-05)
(0.635532 -0.000124444 0.0114808)
(0.648544 -0.000547707 0.000146796)
(0.628222 -0.000372057 0.00010976)
(0.636401 -0.00025997 0.0169951)
(0.64838 -0.00063459 0.000377533)
(0.628157 -0.000390822 0.000351411)
(0.626567 -0.000263031 1.26553e-05)
(0.637466 -0.000447394 0.0228461)
(0.648101 -0.000726009 0.000758145)
(0.628081 -0.000400809 0.000637619)
(0.626531 -0.000259371 4.16504e-05)
(0.62513 -0.00013898 5.75331e-06)
(0.638579 -0.000679962 0.0287542)
(0.647651 -0.000816011 0.00135476)
(0.627996 -0.000400065 0.000977989)
(0.626493 -0.000249431 7.94812e-05)
(0.625111 -0.00012687 1.85217e-05)
(0.624998 -7.09413e-05 7.00825e-07)
(0.639493 -0.000952062 0.0344692)
(0.646962 -0.000899503 0.00223497)
(0.6279 -0.000388043 0.00137283)
(0.626453 -0.000233453 0.000128333)
(0.625093 -0.000112638 3.38929e-05)
(0.624991 -6.2073e-05 2.28506e-06)
(0.624954 -3.18451e-05 1.97199e-07)
(0.639828 -0.00121373 0.0397449)
(0.645958 -0.000957617 0.00343763)
(0.627789 -0.00036295 0.00181881)
(0.626409 -0.000211703 0.000191124)
(0.625078 -9.69326e-05 5.24939e-05)
(0.624986 -5.2874e-05 4.27631e-06)
(0.624951 -2.67261e-05 6.44247e-07)
(0.624972 -1.38616e-05 1.39338e-08)
(0.639191 -0.00145768 0.0443427)
(0.644569 -0.000984253 0.00496658)
(0.627657 -0.000326478 0.00231214)
(0.626359 -0.000185181 0.000271366)
(0.625064 -8.046e-05 7.45086e-05)
(0.624981 -4.36342e-05 6.81901e-06)
(0.624949 -2.17734e-05 1.15932e-06)
(0.624971 -1.12608e-05 5.38849e-08)
(0.624984 -5.51715e-06 -9.00973e-11)
(0.637238 -0.00152337 0.0479221)
(0.642724 -0.00094136 0.00674925)
(0.627487 -0.000275769 0.00284377)
(0.626297 -0.000154468 0.0003717)
(0.625051 -6.38138e-05 0.000100113)
(0.624977 -3.45956e-05 9.99903e-06)
(0.624947 -1.70637e-05 1.81562e-06)
(0.62497 -8.8188e-06 8.96639e-08)
(0.624983 -4.30539e-06 1.01251e-08)
(0.624993 -2.06547e-06 4.23853e-10)
(0.633956 -0.00139 0.0503267)
(0.640422 -0.000836872 0.00869043)
(0.627261 -0.000214949 0.00340497)
(0.62622 -0.00012131 0.000494117)
(0.625039 -4.75547e-05 0.000129323)
(0.624974 -2.59438e-05 1.40107e-05)
(0.624946 -1.26686e-05 2.55623e-06)
(0.62497 -6.54737e-06 1.61534e-07)
(0.624983 -3.19254e-06 3.23646e-09)
(0.624992 -1.52883e-06 9.87559e-09)
(0.624997 -6.82554e-07 -2.53721e-09)
(0.629443 -0.000938495 0.0513367)
(0.637674 -0.000640193 0.0105985)
(0.626948 -0.00014355 0.00397158)
(0.626119 -8.64935e-05 0.000636888)
(0.625026 -3.21264e-05 0.000162056)
(0.624971 -1.78044e-05 1.89304e-05)
(0.624946 -8.60773e-06 3.45239e-06)
(0.62497 -4.46169e-06 2.26031e-07)
(0.624983 -2.16597e-06 2.42831e-08)
(0.624992 -1.04356e-06 5.64475e-09)
(0.624997 -4.59981e-07 -1.4074e-09)
(0.625 -2.08486e-07 8.86196e-10)
(0.624125 -0.000383705 0.0510792)
(0.634588 -0.000416183 0.012327)
(0.626529 -6.76022e-05 0.004518)
(0.625989 -5.26352e-05 0.000795919)
(0.62501 -1.7637e-05 0.000197869)
(0.624967 -1.02984e-05 2.48587e-05)
(0.624945 -4.90512e-06 4.44908e-06)
(0.624969 -2.55783e-06 3.33448e-07)
(0.624983 -1.23982e-06 2.20283e-08)
(0.624992 -5.97422e-07 2.03699e-08)
(0.624997 -2.63814e-07 -1.00319e-08)
(0.625 -1.19793e-07 8.16771e-09)
(0.625002 -4.44162e-08 1.60002e-09)
(0.618337 -6.59318e-05 0.0494248)
(0.631263 -0.000144351 0.0136411)
(0.625978 -1.57388e-05 0.00499405)
(0.625822 -1.80266e-05 0.000960676)
(0.624989 -5.31402e-06 0.000235739)
(0.624963 -3.36704e-06 3.17319e-05)
(0.624944 -1.56826e-06 5.5858e-06)
(0.624969 -8.30498e-07 4.54369e-07)
(0.624983 -3.95382e-07 4.70371e-08)
(0.624992 -1.98529e-07 1.4572e-08)
(0.624997 -8.02942e-08 -4.38979e-09)
(0.625 -4.46579e-08 6.97391e-09)
(0.625002 -1.75353e-08 3.59349e-09)
(0.625002 -5.08848e-09 4.68675e-10)
(0.634673 7.00801e-05 0.00208109)
(0.63498 1.84009e-05 0.00652726)
(0.648658 -0.000394118 3.53119e-05)
(0.635607 -6.19871e-05 0.0114786)
(0.648578 -0.000467703 0.000147891)
(0.628278 -0.000346354 0.000109684)
(0.636519 -0.000181973 0.0169914)
(0.648428 -0.000549475 0.000380456)
(0.628223 -0.000372102 0.000351177)
(0.6266 -0.000260642 1.27191e-05)
(0.637643 -0.000347605 0.0228409)
(0.648165 -0.000638205 0.00076448)
(0.628158 -0.000390948 0.00063732)
(0.626565 -0.000263024 4.19017e-05)
(0.625151 -0.000148363 5.75295e-06)
(0.638835 -0.000558291 0.0287509)
(0.647734 -0.000731837 0.00136757)
(0.628081 -0.000401066 0.000977873)
(0.626526 -0.000259347 8.00573e-05)
(0.62513 -0.000138981 1.85095e-05)
(0.625007 -7.91451e-05 7.08943e-07)
(0.639843 -0.000797033 0.0344714)
(0.647064 -0.00082339 0.00225687)
(0.627992 -0.000400487 0.00137324)
(0.626484 -0.000249371 0.0001293)
(0.62511 -0.00012687 3.39117e-05)
(0.624998 -7.09403e-05 2.29689e-06)
(0.624957 -3.69963e-05 2.01426e-07)
(0.640289 -0.00105211 0.0397809)
(0.646082 -0.000905661 0.00347584)
(0.627885 -0.000388537 0.00182089)
(0.626437 -0.00023332 0.000192649)
(0.625092 -0.000112637 5.25058e-05)
(0.624991 -6.20706e-05 4.31858e-06)
(0.624954 -3.1845e-05 6.34454e-07)
(0.624973 -1.6582e-05 1.70596e-08)
(0.639733 -0.00127523 0.044424)
(0.644706 -0.000958186 0.00501914)
(0.627751 -0.000363251 0.00231587)
(0.626382 -0.000211452 0.000273251)
(0.625076 -9.69276e-05 7.45854e-05)
(0.624985 -5.28697e-05 6.84642e-06)
(0.624951 -2.67259e-05 1.17761e-06)
(0.624972 -1.38615e-05 4.64985e-08)
(0.624984 -6.81121e-06 3.52439e-09)
(0.637846 -0.00144739 0.0481361)
(0.642876 -0.00097177 0.00683139)
(0.627576 -0.000325803 0.00285181)
(0.626316 -0.000184745 0.000374102)
(0.625061 -8.04453e-05 0.000100217)
(0.62498 -4.36274e-05 1.00569e-05)
(0.624949 -2.17732e-05 1.79798e-06)
(0.624971 -1.12607e-05 1.02197e-07)
(0.624984 -5.51744e-06 2.9313e-10)
(0.624993 -2.64347e-06 3.38706e-09)
(0.634491 -0.00142785 0.0505858)
(0.640553 -0.000912287 0.00877702)
(0.627335 -0.000273518 0.00341389)
(0.626234 -0.000153836 0.00049632)
(0.625046 -6.37809e-05 0.000129494)
(0.624976 -3.45869e-05 1.40371e-05)
(0.624947 -1.70633e-05 2.57733e-06)
(0.62497 -8.81881e-06 1.4733e-07)
(0.624983 -4.30554e-06 1.78173e-08)
(0.624993 -2.06561e-06 1.87617e-09)
(0.624997 -9.22941e-07 -3.13772e-10)
(0.629884 -0.00120597 0.0516537)
(0.63778 -0.000786345 0.0107034)
(0.627008 -0.000210314 0.00398354)
(0.626128 -0.000120445 0.000639243)
(0.625031 -4.74927e-05 0.000162263)
(0.624972 -2.59348e-05 1.8964e-05)
(0.624946 -1.26676e-05 3.44318e-06)
(0.62497 -6.54747e-06 2.37859e-07)
(0.624983 -3.19267e-06 8.64364e-09)
(0.624992 -1.52888e-06 1.70751e-08)
(0.624997 -6.82873e-07 -7.56001e-09)
(0.625 -3.03394e-07 2.79115e-09)
(0.624374 -0.000771375 0.0512307)
(0.634633 -0.000584441 0.0123953)
(0.626566 -0.000138464 0.00452412)
(0.625993 -8.55694e-05 0.000797375)
(0.625013 -3.20332e-05 0.000198071)
(0.624968 -1.77985e-05 2.48608e-05)
(0.624945 -8.60593e-06 4.46506e-06)
(0.624969 -4.4617e-06 3.24287e-07)
(0.624983 -2.16616e-06 3.43373e-08)
(0.624992 -1.04352e-06 9.58661e-09)
(0.624997 -4.60179e-07 -2.77353e-09)
(0.625 -2.08661e-07 3.26199e-09)
(0.625002 -7.65512e-08 1.02817e-09)
(0.61849 -0.000308267 0.0494607)
(0.631267 -0.000368578 0.0136922)
(0.626001 -6.53068e-05 0.00499459)
(0.625823 -5.18149e-05 0.000961749)
(0.624991 -1.75452e-05 0.000235835)
(0.624964 -1.03033e-05 3.1713e-05)
(0.624945 -4.90145e-06 5.58925e-06)
(0.624969 -2.55884e-06 4.55085e-07)
(0.624983 -1.24008e-06 3.60984e-08)
(0.624992 -5.97361e-07 2.45052e-08)
(0.624997 -2.63978e-07 -1.31283e-08)
(0.625 -1.19834e-07 1.40076e-08)
(0.625002 -4.44537e-08 5.25813e-09)
(0.625002 -1.86121e-08 3.09358e-10)
(0.61265 -5.66203e-05 0.0463978)
(0.627838 -0.000125409 0.0144157)
(0.625311 -1.6044e-05 0.00533799)
(0.625614 -1.76295e-05 0.00111733)
(0.624961 -5.30462e-06 0.000273585)
(0.624958 -3.37198e-06 3.92986e-05)
(0.624944 -1.56744e-06 6.83548e-06)
(0.624969 -8.30566e-07 6.04972e-07)
(0.624983 -3.9697e-07 6.22272e-08)
(0.624992 -1.97233e-07 1.96035e-08)
(0.624997 -8.12447e-08 -6.47649e-09)
(0.625 -4.39512e-08 1.09216e-08)
(0.625002 -1.72677e-08 7.01434e-09)
(0.625002 -5.22292e-09 1.66583e-09)
(0.625003 -1.47499e-08 2.62127e-09)
(-1.18584e-06 -1.44474e-05 1.35597e-06)
(0.634687 0.000102741 0.00208086)
(0.635006 5.96854e-05 0.00652637)
(0.64867 -0.000328796 3.54669e-05)
(0.635653 -9.58196e-06 0.0114767)
(0.6486 -0.000394676 0.000148622)
(0.628323 -0.000315878 0.00010961)
(0.636594 -0.000114614 0.016988)
(0.648462 -0.000469353 0.000382371)
(0.628278 -0.000346395 0.000350946)
(0.626632 -0.000252661 1.27629e-05)
(0.637759 -0.000261568 0.0228356)
(0.648214 -0.000552852 0.000768872)
(0.628224 -0.000372219 0.00063695)
(0.626598 -0.000260636 4.2103e-05)
(0.625172 -0.000154546 5.74654e-06)
(0.639009 -0.000447702 0.028744)
(0.647799 -0.000643708 0.00137638)
(0.628158 -0.000391194 0.000977517)
(0.62656 -0.000263008 8.05042e-05)
(0.62515 -0.000148363 1.85091e-05)
(0.625016 -8.63275e-05 7.12297e-07)
(0.640093 -0.000663413 0.0344678)
(0.647148 -0.000738925 0.00227376)
(0.628077 -0.000401478 0.00137327)
(0.626517 -0.000259303 0.000130165)
(0.625129 -0.000138982 3.38948e-05)
(0.625007 -7.91441e-05 2.32215e-06)
(0.624961 -4.20358e-05 1.98021e-07)
(0.640627 -0.000888938 0.0397867)
(0.646184 -0.000829945 0.00350382)
(0.627977 -0.000401032 0.00182176)
(0.626468 -0.000249267 0.000193981)
(0.62511 -0.00012687 5.25379e-05)
(0.624998 -7.09381e-05 4.33996e-06)
(0.624957 -3.69961e-05 6.47357e-07)
(0.624974 -1.93822e-05 1.46544e-08)
(0.64017 -0.00111354 0.0444718)
(0.644829 -0.000907452 0.00506594)
(0.627847 -0.000388958 0.00231889)
(0.62641 -0.0002331 0.000275217)
(0.625091 -0.000112634 7.46158e-05)
(0.624991 -6.20663e-05 6.90698e-06)
(0.624954 -3.18447e-05 1.16183e-06)
(0.624973 -1.65818e-05 5.59364e-08)
(0.624985 -8.18899e-06 -1.68997e-10)
(0.638347 -0.00129213 0.0482391)
(0.64301 -0.000950309 0.00689481)
(0.627669 -0.000363085 0.00285685)
(0.62634 -0.000211051 0.000376452)
(0.625073 -9.69176e-05 0.000100322)
(0.624985 -5.28625e-05 1.00968e-05)
(0.624951 -2.67255e-05 1.82205e-06)
(0.624972 -1.38614e-05 9.03404e-08)
(0.624984 -6.81147e-06 1.10665e-08)
(0.624993 -3.27116e-06 2.80045e-10)
(0.635023 -0.00139348 0.0508051)
(0.640695 -0.000947242 0.00886855)
(0.627422 -0.000324102 0.00342323)
(0.626253 -0.000184073 0.00049918)
(0.625056 -8.04198e-05 0.000129634)
(0.624979 -4.36167e-05 1.41052e-05)
(0.624949 -2.17728e-05 2.55923e-06)
(0.624971 -1.12605e-05 1.63367e-07)
(0.624984 -5.51771e-06 2.2021e-09)
(0.624993 -2.64359e-06 1.0621e-08)
(0.624997 -1.19062e-06 -2.76943e-09)
(0.630334 -0.0013042 0.0518929)
(0.637896 -0.000869998 0.0107968)
(0.627079 -0.000269898 0.00399318)
(0.626142 -0.000152889 0.000641868)
(0.625038 -6.37316e-05 0.000162453)
(0.624974 -3.4574e-05 1.8999e-05)
(0.624947 -1.70626e-05 3.46389e-06)
(0.62497 -8.81879e-06 2.23011e-07)
(0.624983 -4.30566e-06 2.6919e-08)
(0.624993 -2.06574e-06 4.60668e-09)
(0.624997 -9.23298e-07 -1.08432e-09)
(0.625 -4.12715e-07 6.68883e-10)
(0.62472 -0.00103602 0.0514682)
(0.634718 -0.000727351 0.012493)
(0.626621 -0.00020475 0.00453465)
(0.626002 -0.000119224 0.000799982)
(0.625018 -4.74136e-05 0.000198272)
(0.62497 -2.59224e-05 2.48953e-05)
(0.624946 -1.26661e-05 4.4593e-06)
(0.62497 -6.54765e-06 3.34732e-07)
(0.624983 -3.19272e-06 1.84942e-08)
(0.624992 -1.52891e-06 2.36565e-08)
(0.624997 -6.83203e-07 -1.2241e-08)
(0.625 -3.03584e-07 8.7529e-09)
(0.625002 -1.10697e-07 1.7248e-09)
(0.618683 -0.000641764 0.049565)
(0.631302 -0.000527022 0.0137544)
(0.626035 -0.000133601 0.00499906)
(0.625827 -8.43205e-05 0.000963417)
(0.624994 -3.19401e-05 0.000235978)
(0.624964 -1.77904e-05 3.17185e-05)
(0.624945 -8.60367e-06 5.6023e-06)
(0.624969 -4.46173e-06 4.47875e-07)
(0.624983 -2.16644e-06 4.65849e-08)
(0.624992 -1.04337e-06 1.42161e-08)
(0.624997 -4.60431e-07 -4.58146e-09)
(0.625 -2.08826e-07 6.79177e-09)
(0.625002 -7.66383e-08 3.66782e-09)
(0.625002 -3.00321e-08 5.74329e-10)
(0.612762 -0.000261316 0.0464116)
(0.627839 -0.000325161 0.014457)
(0.625331 -6.41946e-05 0.00533686)
(0.625615 -5.07934e-05 0.00111841)
(0.624963 -1.7502e-05 0.000273564)
(0.624958 -1.03066e-05 3.92835e-05)
(0.624944 -4.898e-06 6.83768e-06)
(0.624969 -2.56011e-06 6.04086e-07)
(0.624983 -1.24035e-06 5.38316e-08)
(0.624992 -5.97267e-07 2.79716e-08)
(0.624997 -2.64161e-07 -1.4946e-08)
(0.625 -1.19831e-07 1.93074e-08)
(0.625002 -4.44705e-08 9.65357e-09)
(0.625002 -1.86285e-08 1.25819e-09)
(0.625003 -1.26471e-09 5.92843e-09)
(0.607327 -5.31463e-05 0.0422323)
(0.624514 -0.00010954 0.014516)
(0.624534 -1.68149e-05 0.00549798)
(0.625368 -1.72057e-05 0.00124716)
(0.624924 -5.33343e-06 0.000308028)
(0.624951 -3.37644e-06 4.71643e-05)
(0.624943 -1.56706e-06 8.15429e-06)
(0.624969 -8.3096e-07 7.81603e-07)
(0.624983 -3.98406e-07 8.03571e-08)
(0.624992 -1.96063e-07 2.49045e-08)
(0.624997 -8.23448e-08 -8.78034e-09)
(0.625 -4.30576e-08 1.51237e-08)
(0.625002 -1.68956e-08 1.06177e-08)
(0.625002 -5.3587e-09 3.30021e-09)
(0.625003 -1.41364e-08 9.14856e-09)
(0.625003 1.08168e-08 -4.37706e-10)
(-4.29376e-06 -2.16095e-05 2.37314e-06)
(-1.17625e-06 -1.30937e-05 1.68501e-06)
(-9.38105e-07 -1.0748e-05 1.521e-06)
(0.634693 0.000128589 0.00208068)
(0.63502 9.3067e-05 0.00652564)
(0.648676 -0.000271331 3.5574e-05)
(0.63568 3.37775e-05 0.0114751)
(0.648613 -0.000329319 0.000149099)
(0.628358 -0.000282671 0.000109548)
(0.636639 -5.80203e-05 0.016985)
(0.648484 -0.000396216 0.000383636)
(0.628323 -0.000315916 0.000350719)
(0.626661 -0.000239858 1.27959e-05)
(0.637833 -0.000187405 0.0228306)
(0.648248 -0.000472506 0.000771731)
(0.628279 -0.000346504 0.000636573)