/*--------------------------------*- C++ -*----------------------------------*\
  =========                 |
  \\      /  F ield         | OpenFOAM: The Open Source CFD Toolbox
   \\    /   O peration     | Website:  https://openfoam.org
    \\  /    A nd           | Version:  7
     \\/     M anipulation  |
\*---------------------------------------------------------------------------*/
FoamFile
{
    version     2.0;
    format      ascii;
    class       surfaceScalarField;
    location    "100";
    object      phi;
}
// * * * * * * * * * * * * * * * * * * * * * * * * * * * * * * * * * * * * * //

dimensions      [0 3 -1 0 0 0 0];

internalField   nonuniform List<scalar> 
125460
(
-1.72461e-16
2.86202e-17
3.1081e-11
-3.64445e-16
4.19686e-17
3.44846e-11
-1.63847e-16
9.14458e-17
3.92851e-11
-2.55025e-16
2.01173e-15
3.10814e-11
-5.77012e-16
3.23697e-17
3.81988e-11
-3.41913e-16
1.24846e-16
4.3587e-11
9.91648e-16
5.92645e-15
3.4485e-11
-1.3737e-16
9.8848e-17
4.94308e-11
-4.03864e-16
4.9086e-15
3.92856e-11
6.90214e-16
-2.21334e-15
3.10813e-11
-7.95291e-16
2.4608e-17
4.22368e-11
-5.44566e-16
1.1701e-16
4.82816e-11
1.81173e-15
2.10202e-15
3.81993e-11
-2.81734e-16
1.34958e-16
5.48437e-11
1.20853e-15
1.38697e-14
4.35876e-11
2.47188e-17
-6.20413e-15
3.44849e-11
-9.99666e-17
1.42127e-16
6.18442e-11
-4.96096e-16
8.79623e-15
4.94314e-11
8.58664e-16
-5.11351e-15
3.92854e-11
-3.36523e-16
2.02442e-15
3.10814e-11
-1.02409e-15
-7.09141e-18
4.66087e-11
-7.47766e-16
1.0456e-16
5.33854e-11
3.0503e-15
8.3283e-15
4.22374e-11
-4.50834e-16
1.24493e-16
6.07507e-11
1.84158e-15
5.64901e-15
4.82822e-11
-1.82191e-16
-2.42227e-15
3.81992e-11
-1.97906e-16
1.80515e-16
6.86164e-11
1.36785e-15
1.98859e-14
5.48444e-11
-1.4561e-16
-1.41949e-14
4.35874e-11
5.50337e-16
5.52877e-15
3.4485e-11
-5.96676e-17
1.15364e-16
7.68241e-11
-5.64678e-16
1.28494e-14
6.1845e-11
9.48694e-16
-8.94696e-15
4.94311e-11
-4.77228e-16
4.79461e-15
3.92856e-11
6.48496e-16
-1.95264e-15
3.10813e-11
-1.24626e-15
-1.79064e-17
5.13191e-11
-9.693e-16
6.77931e-17
5.89114e-11
3.74447e-15
2.0959e-15
4.66094e-11
-6.17469e-16
8.61599e-17
6.71726e-11
3.54238e-15
1.95533e-14
5.33862e-11
-8.32753e-16
-8.71274e-15
4.22372e-11
-3.18257e-16
1.84994e-16
7.60068e-11
1.87282e-15
1.0444e-14
6.07514e-11
-1.37951e-16
-6.04764e-15
4.8282e-11
1.03629e-15
2.2233e-15
3.81993e-11
-1.07545e-16
1.44508e-16
8.52366e-11
1.55003e-15
2.54413e-14
6.86173e-11
-3.09697e-16
-2.0163e-14
5.48441e-11
7.29718e-16
1.28249e-14
4.35876e-11
1.33155e-16
-5.48626e-15
3.44849e-11
-2.39904e-17
1.23663e-16
9.45976e-11
-5.18083e-16
1.73147e-14
7.68251e-11
1.00723e-15
-1.28197e-14
6.18446e-11
-5.613e-16
8.39802e-15
4.94314e-11
8.15641e-16
-4.50481e-15
3.92854e-11
-2.33528e-16
1.20599e-15
3.10812e-11
-1.46691e-15
-7.74564e-17
5.63711e-11
-1.17765e-15
5.52226e-17
6.48652e-11
4.87745e-15
1.09543e-14
5.13198e-11
-8.07942e-16
2.88207e-17
7.41257e-11
3.93721e-15
5.44829e-15
5.89122e-11
-9.64571e-16
-2.42107e-15
4.66092e-11
-4.34793e-16
1.33671e-16
8.40414e-11
3.94982e-15
2.8332e-14
6.71735e-11
-1.23154e-15
-2.01023e-14
5.33859e-11
1.8691e-15
7.69458e-15
4.22373e-11
-1.73454e-16
1.44656e-16
9.4417e-11
1.8785e-15
1.56712e-14
7.60077e-11
-1.77046e-16
-1.0818e-14
6.07511e-11
1.03655e-15
5.6705e-15
4.82822e-11
9.71819e-18
-2.17568e-15
3.81991e-11
-2.78325e-17
1.49556e-16
1.04956e-10
1.74511e-15
2.87285e-14
8.52377e-11
-5.18269e-16
-2.5543e-14
6.86168e-11
8.72444e-16
1.8292e-14
5.48444e-11
9.4996e-18
-1.25799e-14
4.35873e-11
2.16991e-16
3.16143e-15
3.44848e-11
2.87246e-18
8.98812e-17
1.15223e-10
-3.86669e-16
2.10681e-14
9.45989e-11
9.55827e-16
-1.70655e-14
7.68244e-11
-6.21491e-16
1.21222e-14
6.1845e-11
9.16557e-16
-7.91697e-15
4.94311e-11
-3.0713e-16
2.81271e-15
3.92853e-11
3.02788e-16
-1.16182e-15
3.10811e-11
-1.66463e-15
-7.93169e-17
6.17557e-11
-1.39608e-15
-8.81063e-18
7.12506e-11
5.38113e-15
2.19032e-15
5.63719e-11
-9.82218e-16
-2.1324e-17
8.1617e-11
5.5855e-15
2.59367e-14
6.4866e-11
-1.55793e-15
-1.14371e-14
5.13197e-11
-5.78857e-16
9.37428e-17
9.27406e-11
4.09471e-15
1.07384e-14
7.41267e-11
-1.03612e-15
-5.83557e-15
5.89119e-11
2.17803e-15
2.26616e-15
4.66093e-11
-2.366e-16
6.41076e-17
1.04398e-10
4.40446e-15
3.65853e-14
8.40425e-11
-1.65556e-15
-2.88729e-14
6.71731e-11
2.2696e-15
1.79132e-14
5.33861e-11
-5.21374e-16
-7.73157e-15
4.22371e-11
-4.3264e-17
1.53553e-16
1.16261e-10
1.9811e-15
2.125e-14
9.44182e-11
-2.25463e-16
-1.58641e-14
7.60072e-11
1.06439e-15
1.01455e-14
6.07514e-11
9.3846e-17
-5.41658e-15
4.82819e-11
4.19272e-16
1.29998e-15
3.8199e-11
3.19032e-17
1.05511e-16
1.27841e-10
2.03655e-15
3.12863e-14
1.04958e-10
-7.28173e-16
-2.85767e-14
8.5237e-11
1.04446e-15
2.33674e-14
6.86172e-11
-9.99835e-17
-1.78471e-14
5.4844e-11
3.18117e-16
7.30899e-15
4.35873e-11
-1.15083e-16
-3.14617e-15
3.44847e-11
2.0473e-17
8.44764e-17
1.38504e-10
-7.46278e-17
2.42275e-14
1.15225e-10
8.39647e-16
-2.0522e-14
9.4598e-11
-5.77505e-16
1.6134e-14
7.68251e-11
9.93517e-16
-1.13518e-14
6.18445e-11
-3.45411e-16
4.85423e-15
4.94311e-11
3.88811e-16
-2.71861e-15
3.92852e-11
-1.05231e-16
5.29859e-16
3.1081e-11
-1.84724e-15
-1.55204e-16
6.7455e-11
-1.58435e-15
-8.00729e-18
7.80565e-11
6.29248e-15
1.38906e-14
6.17565e-11
-1.17778e-15
-1.28877e-16
8.96516e-11
5.69712e-15
5.57892e-15
7.12516e-11
-1.51513e-15
-2.47468e-15
5.63717e-11
-7.05905e-16
3.25125e-17
1.02113e-10
6.18586e-15
3.76932e-14
8.16181e-11
-2.13737e-15
-2.66563e-14
6.48657e-11
2.82141e-15
1.00543e-14
5.13198e-11
-3.28097e-16
1.13153e-17
1.15204e-10
4.20249e-15
1.63764e-14
9.27418e-11
-1.21143e-15
-1.11101e-14
7.41262e-11
2.29303e-15
5.54682e-15
5.89122e-11
-6.34845e-16
-2.21068e-15
4.66091e-11
-5.98398e-17
7.64819e-17
1.28551e-10
4.91311e-15
4.1247e-14
1.04399e-10
-2.17804e-15
-3.697e-14
8.40419e-11
2.63019e-15
2.58232e-14
6.71735e-11
-8.21835e-16
-1.78758e-14
5.33858e-11
8.05739e-16
4.3617e-15
4.22371e-11
5.7832e-17
1.03871e-16
1.4161e-10
2.21744e-15
2.6151e-14
1.16262e-10
-3.55409e-16
-2.1184e-14
9.44174e-11
1.08469e-15
1.49674e-14
7.60077e-11
1.14098e-16
-9.70318e-15
6.0751e-11
4.19603e-16
3.2366e-15
4.82819e-11
-3.2622e-16
-1.26825e-15
3.81989e-11
7.12852e-17
8.56702e-17
1.53671e-10
2.40081e-15
3.23672e-14
1.27842e-10
-9.90815e-16
-3.08003e-14
1.04957e-10
1.22472e-15
2.63107e-14
8.52377e-11
-2.42619e-16
-2.26277e-14
6.86167e-11
4.05479e-16
1.0379e-14
5.4844e-11
-1.9738e-16
-7.29975e-15
4.35871e-11
1.16335e-16
1.3005e-15
3.44846e-11
2.76186e-17
6.34369e-17
1.63871e-10
3.35293e-16
2.61123e-14
1.38507e-10
5.69151e-16
-2.34032e-14
1.15224e-10
-4.61461e-16
1.94713e-14
9.45989e-11
9.73337e-16
-1.51489e-14
7.68244e-11
-3.69277e-16
6.95794e-15
6.18446e-11
4.38713e-16
-4.77056e-15
4.94309e-11
-1.3022e-16
1.22398e-15
3.92851e-11
1.25966e-16
-4.99017e-16
3.10809e-11
-1.98272e-15
-1.7778e-16
7.34497e-11
-1.76972e-15
-7.13759e-17
8.52602e-11
6.42685e-15
2.27349e-15
6.74559e-11
-1.34042e-15
-1.53871e-16
9.82152e-11
7.15198e-15
3.32338e-14
7.80576e-11
-1.94838e-15
-1.45154e-14
6.17563e-11
-8.65521e-16
-4.30857e-17
1.12165e-10
5.93401e-15
1.11942e-14
8.96528e-11
-1.66943e-15
-5.75873e-15
7.12512e-11
2.84217e-15
2.40662e-15
5.63718e-11
-4.04839e-16
-9.85308e-17
1.26847e-10
6.85165e-15
4.91561e-14
1.02115e-10
-2.77505e-15
-3.85025e-14
8.16176e-11
3.37986e-15
2.35272e-14
6.4866e-11
-1.22239e-15
-1.0203e-14
5.13196e-11
-1.01797e-16
3.82649e-17
1.41857e-10
4.43685e-15
2.32296e-14
1.15206e-10
-1.40182e-15
-1.65542e-14
9.27411e-11
2.42488e-15
1.04817e-14
7.41266e-11
-6.27817e-16
-5.34265e-15
5.89118e-11
9.15169e-16
1.28446e-15
4.66091e-11
7.54864e-17
8.85773e-18
1.56579e-10
5.58798e-15
4.47564e-14
1.28552e-10
-2.73265e-15
-4.13185e-14
1.04398e-10
3.05462e-15
3.32851e-14
8.40425e-11
-1.12894e-15
-2.56709e-14
6.7173e-11
1.02215e-15
1.01e-14
5.33858e-11
-7.67552e-16
-4.453e-15
4.22369e-11
1.26141e-16
8.80082e-17
1.70222e-10
2.7387e-15
3.01319e-14
1.41612e-10
-5.51349e-16
-2.57252e-14
1.16261e-10
1.19102e-15
1.99777e-14
9.44182e-11
1.35474e-16
-1.42221e-14
7.60071e-11
4.46036e-16
5.73534e-15
6.0751e-11
-3.01023e-16
-3.23321e-15
4.82817e-11
2.28128e-16
5.3507e-16
3.81988e-11
9.63685e-17
7.31475e-17
1.81815e-10
2.89564e-15
3.26464e-14
1.53673e-10
-1.2649e-15
-3.15665e-14
1.27841e-10
1.47695e-15
2.85941e-14
1.04958e-10
-3.79163e-16
-2.5326e-14
8.52369e-11
5.12046e-16
1.32426e-14
6.86168e-11
-2.65637e-16
-1.04069e-14
5.48438e-11
1.56426e-16
3.03855e-15
4.3587e-11
-1.10962e-16
-1.28794e-15
3.44845e-11
3.26665e-17
6.92063e-17
1.90285e-10
8.88046e-16
2.69173e-14
1.63873e-10
2.2687e-16
-2.50156e-14
1.38505e-10
-1.89702e-16
2.22121e-14
1.15225e-10
8.96753e-16
-1.82318e-14
9.45979e-11
-3.36755e-16
9.1829e-15
7.68246e-11
4.75577e-16
-6.85909e-15
6.18443e-11
-1.39218e-16
2.06629e-15
4.94308e-11
1.6098e-16
-1.18638e-15
3.9285e-11
-5.09723e-17
2.02209e-16
3.10808e-11
-2.06799e-15
-3.58635e-16
7.96994e-11
-1.90615e-15
-9.45975e-17
9.28372e-11
6.90545e-15
1.70409e-14
7.34507e-11
-1.51507e-15
-2.83321e-16
1.07279e-10
6.80458e-15
5.57243e-15
8.52613e-11
-1.71632e-15
-2.54311e-15
6.74557e-11
-9.91218e-16
-6.61806e-17
1.2288e-10
7.88022e-15
4.83101e-14
9.82164e-11
-2.64909e-15
-3.42753e-14
7.80572e-11
3.21161e-15
1.27246e-14
6.17565e-11
-5.23397e-16
-1.96991e-16
1.39334e-10
6.08779e-15
1.71271e-14
1.12167e-10
-1.94106e-15
-1.13662e-14
8.96522e-11
3.02909e-15
5.66191e-15
7.12515e-11
-1.31013e-15
-2.2907e-15
5.63716e-11
-1.35646e-16
-6.93646e-17
1.56193e-10
7.62856e-15
5.54493e-14
1.26849e-10
-3.56252e-15
-4.98361e-14
1.02114e-10
3.9056e-15
3.40743e-14
8.16181e-11
-1.66267e-15
-2.38654e-14
6.48656e-11
1.25781e-15
5.64584e-15
5.13195e-11
7.50713e-17
-3.70375e-17
1.72787e-10
4.86938e-15
2.93937e-14
1.41859e-10
-1.69581e-15
-2.31589e-14
1.15205e-10
2.54218e-15
1.56607e-14
9.27418e-11
-6.92618e-16
-1.01608e-14
7.41261e-11
9.68023e-16
3.04965e-15
5.89118e-11
-9.47652e-16
-1.32527e-15
4.66089e-11
1.6787e-16
3.12577e-18
1.88216e-10
6.37157e-15
4.54934e-14
1.56582e-10
-3.36222e-15
-4.44129e-14
1.28551e-10
3.52117e-15
3.74139e-14
1.04399e-10
-1.51086e-15
-3.29052e-14
8.40418e-11
1.23056e-15
1.45101e-14
6.7173e-11
-9.65772e-16
-1.04215e-14
5.33856e-11
4.1352e-16
1.81734e-15
4.22368e-11
1.691e-16
6.60029e-17
2.01397e-10
3.50507e-15
3.2569e-14
1.70225e-10
-9.38454e-16
-2.93554e-14
1.4161e-10
1.39685e-15
2.43323e-14
1.16262e-10
9.00768e-17
-1.9007e-14
9.44173e-11
4.70716e-16
8.4088e-15
7.60072e-11
-3.00548e-16
-5.79284e-15
6.07508e-11
2.28045e-16
1.34083e-15
4.82816e-11
-2.57515e-16
-4.95343e-16
3.81987e-11
1.0975e-16
7.36594e-17
2.11122e-10
3.48123e-15
3.19597e-14
1.81818e-10
-1.61036e-15
-3.1547e-14
1.53671e-10
1.77248e-15
2.9488e-14
1.27842e-10
-5.58285e-16
-2.7327e-14
1.04957e-10
6.20397e-16
1.48611e-14
8.52371e-11
-3.51206e-16
-1.32887e-14
6.86165e-11
1.89299e-16
4.28019e-15
5.48437e-11
-1.35361e-16
-3.0574e-15
4.35869e-11
2.70204e-17
3.89488e-16
3.44844e-11
3.15343e-17
8.02757e-17
2.16209e-10
1.47687e-15
2.64307e-14
1.90288e-10
-2.4044e-16
-2.56114e-14
1.63871e-10
1.60194e-16
2.37768e-14
1.38506e-10
6.8142e-16
-2.08231e-14
1.15224e-10
-2.69606e-16
1.10248e-14
9.45983e-11
4.55963e-16
-9.14261e-15
7.68241e-11
-1.42042e-16
2.94809e-15
6.18442e-11
1.82978e-16
-2.07797e-15
4.94306e-11
-4.45062e-17
4.42764e-16
3.92849e-11
9.56088e-17
-1.60641e-16
3.10807e-11
-2.10667e-15
-3.54777e-16
8.61564e-11
-2.01018e-15
-2.51451e-16
1.00737e-10
6.60999e-15
2.05805e-15
7.97005e-11
-1.64716e-15
-3.51368e-16
1.16813e-10
7.83389e-15
4.0752e-14
9.28384e-11
-2.03203e-15
-1.78974e-14
7.34504e-11
-1.14594e-15
-1.37887e-16
1.3422e-10
7.0669e-15
1.13601e-14
1.07281e-10
-1.90161e-15
-5.89917e-15
8.52609e-11
2.96728e-15
2.56117e-15
6.74559e-11
-6.08627e-16
-2.6972e-16
1.52643e-10
8.68355e-15
6.37372e-14
1.22881e-10
-3.43968e-15
-4.96119e-14
9.82158e-11
3.86592e-15
2.99835e-14
7.80575e-11
-1.87836e-15
-1.30027e-14
6.17562e-11
-2.14822e-16
-1.26814e-16
1.71569e-10
6.37326e-15
2.48343e-14
1.39336e-10
-2.22544e-15
-1.69978e-14
1.12166e-10
3.22792e-15
1.0917e-14
8.96527e-11
-1.35549e-15
-5.43796e-15
7.12511e-11
1.33792e-15
1.33133e-15
5.63715e-11
7.11148e-17
-1.85692e-16
1.90249e-10
8.66411e-15
6.04468e-14
1.56196e-10
-4.43582e-15
-5.58601e-14
1.26847e-10
4.52832e-15
4.42881e-14
1.02114e-10
-2.12318e-15
-3.4495e-14
8.16175e-11
1.5475e-15
1.31863e-14
6.48656e-11
-1.34932e-15
-5.89816e-15
5.13193e-11
1.97991e-16
-2.74678e-17
2.07699e-10
5.70152e-15
3.49884e-14
1.72789e-10
-2.07636e-15
-2.89372e-14
1.41857e-10
2.76939e-15
2.18055e-14
1.15206e-10
-7.54123e-16
-1.5134e-14
9.2741e-11
1.04724e-15
5.76545e-15
7.41262e-11
-9.83164e-16
-3.27555e-15
5.89116e-11
4.63116e-16
5.49521e-16
4.66087e-11
2.29217e-16
-1.09428e-17
2.22687e-10
7.33346e-15
4.51346e-14
1.88219e-10
-3.9681e-15
-4.47353e-14
1.5658e-10
4.10308e-15
4.05201e-14
1.28552e-10
-1.9091e-15
-3.68093e-14
1.04398e-10
1.47808e-15
1.8665e-14
8.4042e-11
-1.14973e-15
-1.49938e-14
6.71727e-11
4.98557e-16
4.25379e-15
5.33855e-11
-4.96905e-16
-1.84135e-15
4.22367e-11
1.9464e-16
6.18532e-17
2.33861e-10
4.58659e-15
3.35734e-14
2.01401e-10
-1.48048e-15
-3.14448e-14
1.70223e-10
1.8247e-15
2.77675e-14
1.41612e-10
-9.86117e-18
-2.30776e-14
1.16261e-10
5.3785e-16
1.11735e-14
9.44176e-11
-2.95022e-16
-8.53404e-15
7.60068e-11
2.3549e-16
2.33897e-15
6.07507e-11
-2.33911e-16
-1.31946e-15
4.82814e-11
6.9969e-17
1.78698e-16
3.81986e-11
1.1474e-16
8.84764e-17
2.39884e-10
4.18591e-15
3.04306e-14
2.11126e-10
-2.00203e-15
-3.06168e-14
1.81815e-10
2.16289e-15
2.96371e-14
1.53673e-10
-7.4484e-16
-2.80484e-14
1.27841e-10
7.62656e-16
1.61132e-14
1.04957e-10
-4.3841e-16
-1.49666e-14
8.52366e-11
2.29341e-16
5.4838e-15
6.86164e-11
-1.44891e-16
-4.37123e-15
5.48435e-11
5.65696e-17
9.38063e-16
4.35868e-11
3.90558e-17
-3.45574e-16
3.44843e-11
2.82874e-17
1.0625e-16
2.39691e-10
2.09099e-15
2.48885e-14
2.16212e-10
-7.26336e-16
-2.49475e-14
1.90286e-10
6.27562e-16
2.43326e-14
1.63873e-10
4.02861e-16
-2.22756e-14
1.38505e-10
-1.22142e-16
1.25124e-14
1.15224e-10
4.01673e-16
-1.10249e-14
9.45977e-11
-1.22542e-16
3.84788e-15
7.68241e-11
2.02689e-16
-2.99926e-15
6.1844e-11
-2.65675e-17
7.10176e-16
4.94305e-11
1.18934e-16
-3.92047e-16
3.92847e-11
1.0719e-16
4.20663e-17
3.10806e-11
-2.12974e-15
-5.17209e-16
9.27596e-11
-2.06904e-15
-2.9053e-16
1.08898e-10
6.84448e-15
2.03864e-14
8.61576e-11
-1.77648e-15
-7.26365e-16
1.26752e-10
6.95589e-15
4.8363e-15
1.00738e-10
-1.59344e-15
-2.52359e-15
7.97002e-11
-1.26763e-15
-1.80852e-16
1.46148e-10
8.62436e-15
5.94831e-14
1.16815e-10
-2.78846e-15
-4.28347e-14
9.2838e-11
3.12229e-15
1.56723e-14
7.34506e-11
-7.4023e-16
-3.88154e-16
1.6673e-10
7.21237e-15
1.72775e-14
1.34222e-10
-2.21067e-15
-1.16979e-14
1.0728e-10
3.1724e-15
5.89555e-15
8.52613e-11
-1.79546e-15
-2.37727e-15
6.74556e-11
-2.6596e-16
-1.87897e-16
1.87958e-10
9.63743e-15
7.19293e-14
1.52645e-10
-4.42222e-15
-6.50814e-14
1.2288e-10
4.50785e-15
4.35575e-14
9.82164e-11
-2.40819e-15
-3.08571e-14
7.80571e-11
1.68279e-15
7.16197e-15
6.17561e-11
2.5741e-17
-2.45086e-16
2.08978e-10
6.90093e-15
3.19525e-14
1.71572e-10
-2.61988e-15
-2.45784e-14
1.39335e-10
3.40153e-15
1.62771e-14
1.12167e-10
-1.45972e-15
-1.06508e-14
8.96521e-11
1.41665e-15
3.12997e-15
7.12511e-11
-1.38781e-15
-1.40469e-15
5.63713e-11
2.13501e-16
-1.66134e-16
2.28689e-10
9.89397e-15
6.11242e-14
1.90252e-10
-5.43802e-15
-6.04102e-14
1.56194e-10
5.24327e-15
4.98556e-14
1.26849e-10
-2.69456e-15
-4.47363e-14
1.02114e-10
1.83344e-15
1.90465e-14
8.16176e-11
-1.64208e-15
-1.39159e-14
6.48653e-11
5.72632e-16
2.37487e-15
5.13192e-11
2.80575e-16
-5.52411e-17
2.45738e-10
6.86893e-15
3.87534e-14
2.07702e-10
-2.69728e-15
-3.41795e-14
1.72787e-10
3.13679e-15
2.72692e-14
1.41859e-10
-8.9777e-16
-2.11519e-14
1.15205e-10
1.12014e-15
8.57423e-15
9.27412e-11
-1.03802e-15
-6.16908e-15
7.41258e-11
4.86334e-16
1.3009e-15
5.89114e-11
-6.30671e-16
-5.21184e-16
4.66086e-11
2.68004e-16
2.95863e-18
2.58582e-10
8.37803e-15
4.32215e-14
2.22691e-10
-4.62829e-15
-4.39721e-14
1.88217e-10
4.72958e-15
4.1072e-14
1.56581e-10
-2.36492e-15
-3.96179e-14
1.28551e-10
1.74252e-15
2.0934e-14
1.04399e-10
-1.37031e-15
-1.93463e-14
8.40415e-11
5.74376e-16
6.04514e-15
6.71726e-11
-5.55507e-16
-4.38936e-15
5.33853e-11
1.42303e-16
5.49632e-16
4.22365e-11
2.0929e-16
8.13262e-17
2.65721e-10
5.83146e-15
3.29233e-14
2.33865e-10
-2.27257e-15
-3.21734e-14
2.01398e-10
2.43275e-15
2.97765e-14
1.70225e-10
-2.79514e-16
-2.63449e-14
1.4161e-10
6.4645e-16
1.35654e-14
1.16262e-10
-3.32957e-16
-1.13976e-14
9.44171e-11
2.40292e-16
3.44112e-15
7.60068e-11
-2.05222e-16
-2.39704e-15
6.07505e-11
1.00239e-16
4.30805e-16
4.82813e-11
1.53442e-17
-1.1348e-16
3.81984e-11
1.15195e-16
1.13629e-16
2.65938e-10
4.95316e-15
2.80593e-14
2.39888e-10
-2.49208e-15
-2.89001e-14
2.11122e-10
2.61671e-15
2.88804e-14
1.81818e-10
-9.97589e-16
-2.80776e-14
1.53671e-10
9.17238e-16
1.65601e-14
1.27842e-10
-5.61531e-16
-1.62597e-14
1.04956e-10
2.7065e-16
6.13177e-15
8.52366e-11
-1.53891e-16
-5.639e-15
6.86162e-11
9.38003e-17
1.28804e-15
5.48434e-11
7.02692e-17
-8.98033e-16
4.35866e-11
2.76292e-16
6.19227e-18
3.44841e-11
1.93635e-17
1.28456e-16
2.58546e-10
2.64788e-15
2.23695e-14
2.39695e-10
-1.23853e-15
-2.32821e-14
2.16209e-10
1.11898e-15
2.37077e-14
1.90288e-10
1.06345e-17
-2.283e-14
1.63871e-10
6.21055e-17
1.33416e-14
1.38506e-10
2.63104e-16
-1.26003e-14
1.15223e-10
-9.1994e-17
4.60291e-15
9.45977e-11
2.02162e-16
-3.99356e-15
7.68239e-11
-3.01944e-18
9.81317e-16
6.18439e-11
1.4232e-16
-6.70431e-16
4.94304e-11
1.4426e-16
8.93969e-17
3.92846e-11
2.35121e-16
-3.00885e-17
3.10803e-11
-2.20446e-15
-4.76911e-16
9.9433e-11
-2.11937e-15
-4.16575e-16
1.17244e-10
6.32539e-15
1.83445e-15
9.27609e-11
-1.86861e-15
-7.61562e-16
1.37022e-10
7.75301e-15
4.88362e-14
1.08899e-10
-1.7353e-15
-2.13709e-14
8.61573e-11
-1.42461e-15
-4.74977e-16
1.58583e-10
7.16314e-15
1.03821e-14
1.26754e-10
-1.75017e-15
-5.82895e-15
1.00737e-10
2.68528e-15
2.51406e-15
7.97004e-11
-8.46928e-16
-4.97819e-16
1.81548e-10
9.49849e-15
7.8969e-14
1.4615e-10
-3.65259e-15
-6.20028e-14
1.16814e-10
3.80966e-15
3.71044e-14
9.28384e-11
-2.12354e-15
-1.60382e-14
7.34503e-11
-3.75917e-16
-2.31982e-16
2.05304e-10
7.46912e-15
2.55811e-14
1.66733e-10
-2.52157e-15
-1.75848e-14
1.34221e-10
3.39212e-15
1.13834e-14
1.07281e-10
-1.84601e-15
-5.57566e-15
8.52608e-11
1.69805e-15
1.45679e-15
6.74555e-11
-2.8617e-18
-3.77489e-16
2.28939e-10
1.09206e-14
7.91138e-14
1.8796e-10
-5.53637e-15
-7.31433e-14
1.52644e-10
5.27756e-15
5.71938e-14
1.22881e-10
-2.95306e-15
-4.46945e-14
9.82157e-11
2.01733e-15
1.69785e-14
7.8057e-11
-1.61562e-15
-7.46849e-15
6.17559e-11
1.9449e-16
-1.85362e-16
2.51202e-10
7.91851e-15
3.89336e-14
2.08981e-10
-3.11029e-15
-3.13176e-14
1.7157e-10
3.68786e-15
2.32293e-14
1.39336e-10
-1.54429e-15
-1.59638e-14
1.12166e-10
1.50984e-15
6.00783e-15
8.96522e-11
-1.46697e-15
-3.32738e-15
7.12508e-11
5.26071e-16
6.01045e-16
5.63711e-11
3.10065e-16
-1.94068e-16
2.70572e-10
1.13715e-14
6.05107e-14
2.28693e-10
-6.43858e-15
-6.06654e-14
1.9025e-10
6.13564e-15
5.42041e-14
1.56195e-10
-3.32589e-15
-5.02099e-14
1.26847e-10
2.17268e-15
2.47445e-14
1.02114e-10
-1.92232e-15
-2.01109e-14
8.16172e-11
6.92212e-16
5.58628e-15
6.48652e-11
-8.65084e-16
-2.45162e-15
5.1319e-11
3.35995e-16
-3.65586e-17
2.85349e-10
8.4555e-15
4.08055e-14
2.45742e-10
-3.50331e-15
-3.75545e-14
2.07699e-10
3.79843e-15
3.21223e-14
1.72789e-10
-1.11309e-15
-2.64054e-14
1.41857e-10
1.2455e-15
1.19655e-14
1.15205e-10
-1.08355e-15
-9.20748e-15
9.27407e-11
5.16486e-16
2.38556e-15
7.41257e-11
-6.1825e-16
-1.34374e-15
5.89112e-11
1.87318e-16
1.7777e-16
4.66085e-11
2.93426e-16
3.17523e-17
2.93811e-10
9.55231e-15
4.04485e-14
2.58587e-10
-5.27998e-15
-4.17357e-14
2.22688e-10
5.46413e-15
4.06433e-14
1.88219e-10
-2.79454e-15
-3.99724e-14
1.5658e-10
2.05783e-15
2.26281e-14
1.28552e-10
-1.60765e-15
-2.17212e-14
1.04398e-10
6.63553e-16
7.80774e-15
8.40415e-11
-5.85225e-16
-6.32527e-15
6.71724e-11
2.05724e-16
1.32327e-15
5.33852e-11
-2.91049e-17
-5.08951e-16
4.22364e-11
2.13173e-16
1.07986e-16
2.9458e-10
7.2035e-15
3.09571e-14
2.65726e-10
-3.19714e-15
-3.1304e-14
2.33861e-10
3.28791e-15
3.04555e-14
2.01401e-10
-6.87524e-16
-2.8219e-14
1.70223e-10
8.60409e-16
1.54428e-14
1.41611e-10
-4.14706e-16
-1.38699e-14
1.16261e-10
2.61981e-16
4.53785e-15
9.44171e-11
-1.60805e-16
-3.58091e-15
7.60065e-11
1.48282e-16
7.21701e-16
6.07504e-11
8.20225e-17
-3.55576e-16
4.82812e-11
4.52487e-16
7.09327e-18
3.81982e-11
1.09582e-16
1.46033e-16
2.86858e-10
5.76494e-15
2.49358e-14
2.65942e-10
-3.04676e-15
-2.63975e-14
2.39885e-10
3.1636e-15
2.73313e-14
2.11126e-10
-1.29721e-15
-2.72958e-14
1.81815e-10
1.11328e-15
1.65937e-14
1.53672e-10
-7.04493e-16
-1.67813e-14
1.27841e-10
3.28488e-16
6.66002e-15
1.04956e-10
-1.59356e-16
-6.388e-15
8.52363e-11
1.41138e-16
1.66619e-15
6.86161e-11
1.20284e-16
-1.26216e-15
5.48432e-11
3.4341e-16
6.42764e-17
4.35864e-11
4.34542e-16
6.57858e-18
3.44838e-11
1.56723e-17
1.65256e-16
2.70841e-10
3.12946e-15
1.91463e-14
2.58551e-10
-1.69782e-15
-2.06781e-14
2.39691e-10
1.62606e-15
2.21135e-14
2.16212e-10
-4.00047e-16
-2.22548e-14
1.90286e-10
3.08151e-16
1.36069e-14
1.63872e-10
8.26239e-17
-1.35037e-14
1.38505e-10
-3.0677e-17
5.19661e-15
1.15223e-10
1.91583e-16
-4.82951e-15
9.45974e-11
2.89648e-17
1.23736e-15
7.68237e-11
1.71278e-16
-9.70467e-16
6.18437e-11
1.91217e-16
1.15704e-16
4.94301e-11
2.87057e-16
-7.16118e-17
3.92843e-11
3.4223e-16
3.63175e-17
3.10799e-11
-2.33993e-15
-4.73034e-16
1.06088e-10
-2.22221e-15
-5.91124e-16
1.25679e-10
6.48686e-15
2.33935e-14
9.94343e-11
-1.96674e-15
-1.10708e-15
1.47523e-10
6.59527e-15
3.91249e-15
1.17246e-10
-1.15366e-15
-2.41656e-15
9.27606e-11
-1.5539e-15
-5.07684e-16
1.71431e-10
8.52075e-15
7.1483e-14
1.37023e-10
-2.47888e-15
-5.12558e-14
1.08899e-10
2.8268e-15
1.89322e-14
8.61575e-11
-1.03407e-15
-9.81432e-16
1.96995e-10
7.21601e-15
1.57472e-14
1.58585e-10
-2.02334e-15
-1.16127e-14
1.26753e-10
2.84179e-15
5.56493e-15
1.00738e-10
-1.67134e-15
-2.34598e-15
7.97001e-11
-4.6993e-16
-3.00983e-16
2.23549e-10
1.05494e-14
8.94863e-14
1.8155e-10
-4.73423e-15
-8.24049e-14
1.46149e-10
4.50441e-15
5.41024e-14
1.16814e-10
-2.67267e-15
-3.84301e-14
9.28378e-11
1.93058e-15
8.8692e-15
7.34502e-11
-9.50605e-17
-4.31077e-16
2.50068e-10
7.97791e-15
3.32506e-14
2.05307e-10
-2.92638e-15
-2.58286e-14
1.66731e-10
3.57516e-15
1.68844e-14
1.34222e-10
-1.92664e-15
-1.10295e-14
1.0728e-10
1.78527e-15
3.39808e-15
8.52608e-11
-1.45471e-15
-1.43474e-15
6.74552e-11
1.77384e-16
-3.12091e-16
2.75197e-10
1.24562e-14
7.97399e-14
2.28943e-10
-6.82093e-15
-7.99942e-14
1.87958e-10
6.17871e-15
6.45417e-14
1.52645e-10
-3.62899e-15
-5.87773e-14
1.2288e-10
2.34014e-15
2.45612e-14
9.82158e-11
-1.96394e-15
-1.77567e-14
7.80567e-11
5.50682e-16
3.00908e-15
6.17557e-11
3.11316e-16
-2.28845e-16
2.97208e-10
9.34756e-15
4.40867e-14
2.51206e-10
-3.88465e-15
-3.81421e-14
2.08978e-10
4.13257e-15
2.9486e-14
1.71572e-10
-1.71082e-15
-2.29502e-14
1.39335e-10
1.58318e-15
8.98956e-15
1.12166e-10
-1.56016e-15
-6.44739e-15
8.96518e-11
5.68167e-16
1.34752e-15
7.12506e-11
-9.7155e-16
-5.61024e-16
5.6371e-11
3.76405e-16
-1.47956e-16
3.14187e-10
1.29296e-14
5.74565e-14
2.70577e-10
-7.50534e-15
-5.95785e-14
2.2869e-10
7.11549e-15
5.47012e-14
1.90252e-10
-4.06188e-15
-5.44019e-14
1.56194e-10
2.55334e-15
2.78216e-14
1.26848e-10
-2.25804e-15
-2.62007e-14
1.02113e-10
8.08318e-16
7.96289e-15
8.16171e-11
-9.4676e-16
-5.90588e-15
6.4865e-11
2.70118e-16
6.95505e-16
5.13189e-11
3.75037e-16
-3.99404e-18
3.24223e-10
1.02549e-14
4.06654e-14
2.85353e-10
-4.62253e-15
-3.93201e-14
2.45738e-10
4.69599e-15
3.52909e-14
2.07702e-10
-1.54423e-15
-3.11582e-14
1.72787e-10
1.42745e-15
1.4951e-14
1.41858e-10
-1.18394e-15
-1.2774e-14
1.15204e-10
5.42351e-16
3.5422e-15
9.27406e-11
-5.8496e-16
-2.56853e-15
7.41255e-11
2.49122e-16
4.09964e-16
5.89111e-11
-2.42738e-17
-1.25068e-16
4.66083e-11
3.07461e-16
7.25167e-17
3.2572e-10
1.07833e-14
3.67595e-14
2.93816e-10
-6.02733e-15
-3.87135e-14
2.58583e-10
6.23055e-15
3.87798e-14
2.22691e-10
-3.27387e-15
-3.93567e-14
1.88217e-10
2.3778e-15
2.28937e-14
1.5658e-10
-1.90053e-15
-2.3518e-14
1.28551e-10
7.59368e-16
8.69924e-15
1.04398e-10
-6.10504e-16
-8.23286e-15
8.40412e-11
2.85519e-16
1.8302e-15
6.71723e-11
4.26063e-17
-1.31075e-15
5.3385e-11
6.46014e-16
2.58751e-17
4.22362e-11
2.11202e-16
1.4611e-16
3.17754e-10
8.52581e-15
2.77851e-14
2.94585e-10
-4.24984e-15
-2.91787e-14
2.65722e-10
4.26132e-15
2.96247e-14
2.33865e-10
-1.32241e-15
-2.88763e-14
2.01398e-10
1.15822e-15
1.65309e-14
1.70224e-10
-6.13682e-16
-1.58419e-14
1.4161e-10
2.9868e-16
5.51078e-15
1.16261e-10
-1.25851e-16
-4.81315e-15
9.44167e-11
2.07353e-16
1.04475e-15
7.60064e-11
1.73848e-16
-6.57385e-16
6.07502e-11
5.59104e-16
2.97801e-17
4.82809e-11
6.61748e-16
1.62488e-17
3.8198e-11
1.02068e-16
1.84277e-16
3.00499e-10
6.51749e-15
2.11998e-14
2.86863e-10
-3.66617e-15
-2.31902e-14
2.65938e-10
3.75981e-15
2.49963e-14
2.39888e-10
-1.6948e-15
-2.5803e-14
2.11122e-10
1.33266e-15
1.61163e-14
1.81817e-10
-8.98801e-16
-1.68734e-14
1.53671e-10
3.94024e-16
6.82822e-15
1.27841e-10
-1.80616e-16
-7.00052e-15
1.04956e-10
1.9432e-16
1.84289e-15
8.52362e-11
1.84481e-16
-1.67884e-15
6.86158e-11
4.24748e-16
5.84523e-17
5.4843e-11
5.53982e-16
-4.86307e-17
4.35861e-11
7.32173e-16
-3.4518e-17
3.44834e-11
8.6902e-18
2.01049e-16
2.75113e-10
3.49966e-15
1.54547e-14
2.70845e-10
-2.11139e-15
-1.74311e-14
2.58547e-10
2.0813e-15
1.96303e-14
2.39695e-10
-8.40082e-16
-2.0784e-14
2.16209e-10
5.64071e-16
1.32169e-14
1.90287e-10
-1.68024e-16
-1.38538e-14
1.63871e-10
4.38833e-17
5.52942e-15
1.38505e-10
1.48401e-16
-5.52988e-15
1.15223e-10
6.17888e-17
1.44698e-15
9.45972e-11
2.00884e-16
-1.27449e-15
7.68235e-11
2.46976e-16
1.49782e-16
6.18434e-11
3.49841e-16
-1.07505e-16
4.94298e-11
4.44054e-16
6.62775e-17
3.92838e-11
5.64556e-16
-5.62023e-17
3.10795e-11
-2.65457e-15
-2.51338e-16
1.12626e-10
-2.37624e-15
-5.16601e-16
1.34091e-10
6.10878e-15
1.33335e-15
1.0609e-10
-2.11013e-15
-1.18369e-15
1.58136e-10
7.3197e-15
5.60321e-14
1.25681e-10
-1.19583e-15
-2.45393e-14
9.9434e-11
-1.70887e-15
-7.91936e-16
1.8457e-10
6.71037e-15
9.26126e-15
1.47525e-10
-1.24906e-15
-5.60583e-15
1.17245e-10
2.35159e-15
2.45847e-15
9.27608e-11
-1.19576e-15
-1.01741e-15
2.12955e-10
9.36825e-15
9.54218e-14
1.71433e-10
-3.34134e-15
-7.45636e-14
1.37023e-10
3.49243e-15
4.5146e-14
1.08899e-10
-1.64107e-15
-1.91731e-14
8.61572e-11
-6.85162e-16
-6.68116e-16
2.42571e-10
7.33872e-15
2.42701e-14
1.96998e-10
-2.2768e-15
-1.74982e-14
1.58584e-10
3.01185e-15
1.11113e-14
1.26754e-10
-1.65658e-15
-5.27858e-15
1.00737e-10
1.80105e-15
1.48999e-15
7.96999e-11
-1.82309e-16
-6.2156e-16
2.72291e-10
1.19612e-14
9.91355e-14
2.23552e-10
-5.97312e-15
-9.27695e-14
1.81548e-10
5.35175e-15
7.16351e-14
1.4615e-10
-3.22655e-15
-5.56937e-14
1.16814e-10
2.28776e-15
2.11274e-14
9.28378e-11
-1.5176e-15
-9.11293e-15
7.34499e-11
9.70704e-17
-2.90047e-16
3.00594e-10
9.00517e-15
4.14134e-14
2.50071e-10
-3.41129e-15
-3.3425e-14
2.05305e-10
3.8518e-15
2.44257e-14
1.66733e-10
-1.95745e-15
-1.6578e-14
1.3422e-10
1.86765e-15
6.4661e-15
1.0728e-10
-1.53701e-15
-3.30262e-15
8.52604e-11
4.46767e-16
6.56752e-16
6.7455e-11
2.98993e-16
-3.84033e-16
3.25598e-10
1.42995e-14
7.92407e-14
2.75201e-10
-8.12246e-15
-8.02816e-14
2.2894e-10
7.29691e-15
7.07432e-14
1.8796e-10
-4.39804e-15
-6.61247e-14
1.52644e-10
2.72132e-15
3.23486e-14
1.2288e-10
-2.30809e-15
-2.57206e-14
9.82153e-11
6.97905e-16
7.13278e-15
7.80565e-11
-1.17365e-15
-3.12009e-15
6.17555e-11
3.95579e-16
-1.6671e-16
3.45116e-10
1.12923e-14
4.74603e-14
2.97213e-10
-4.8689e-15
-4.29757e-14
2.51203e-10
4.92067e-15
3.56383e-14
2.08981e-10
-1.9603e-15
-2.9207e-14
1.7157e-10
1.70686e-15
1.28186e-14
1.39335e-10
-1.63733e-15
-9.61203e-15
1.12166e-10
6.24592e-16
2.49849e-15
8.96516e-11
-9.59656e-16
-1.41845e-15
7.12504e-11
3.3605e-16
1.58317e-16
5.63708e-11
4.26408e-16
-1.02265e-16
3.5699e-10
1.45768e-14
5.34918e-14
3.14192e-10
-8.51759e-15
-5.61798e-14
2.70573e-10
8.23445e-15
5.402e-14
2.28693e-10
-4.79297e-15
-5.47201e-14
1.9025e-10
3.01485e-15
3.02328e-14
1.56194e-10
-2.63634e-15
-2.94517e-14
1.26847e-10
9.46045e-16
1.03711e-14
1.02113e-10
-9.84059e-16
-8.52917e-15
8.16168e-11
3.696e-16
1.7066e-15
6.48648e-11
-2.55429e-17
-7.03868e-16
5.13187e-11
3.98274e-16
4.78184e-17
3.59436e-10
1.22325e-14
3.87764e-14
3.24229e-10
-5.9149e-15
-3.89273e-14
2.85349e-10
5.90888e-15
3.68678e-14
2.45741e-10
-2.14148e-15
-3.41928e-14
2.07699e-10
1.74952e-15
1.76458e-14
1.72788e-10
-1.34598e-15
-1.59344e-14
1.41857e-10
5.89326e-16
4.86478e-15
1.15204e-10
-5.22052e-16
-3.88457e-15
9.27403e-11
3.38794e-16
7.18012e-16
7.41253e-11
9.30502e-17
-3.67832e-16
5.89109e-11
8.46434e-16
2.24841e-17
4.66081e-11
3.14409e-16
1.28739e-16
3.51344e-10
1.20607e-14
3.23872e-14
3.25726e-10
-6.83857e-15
-3.48584e-14
2.93811e-10
7.08923e-15
3.61199e-14
2.58587e-10
-3.75479e-15
-3.7423e-14
2.22687e-10
2.74062e-15
2.26138e-14
1.88218e-10
-2.20771e-15
-2.38191e-14
1.56579e-10
8.80451e-16
9.41408e-15
1.28551e-10
-6.31794e-16
-9.28664e-15
1.04398e-10
3.84755e-16
2.38619e-15
8.4041e-11
1.59552e-16
-1.84994e-15
6.71721e-11
7.92746e-16
1.18801e-16
5.33847e-11
9.1041e-16
-2.46413e-18
4.22359e-11
2.0453e-16
1.92683e-16
3.32864e-10
9.7157e-15
2.37709e-14
3.17759e-10
-5.29208e-15
-2.59142e-14
2.94581e-10
5.33578e-15
2.75958e-14
2.65726e-10
-2.08336e-15
-2.80967e-14
2.33861e-10
1.5812e-15
1.68839e-14
2.01399e-10
-9.0854e-16
-1.6991e-14
1.70222e-10
3.79201e-16
6.25538e-15
1.4161e-10
-1.04374e-16
-5.90433e-15
1.1626e-10
2.79912e-16
1.34257e-15
9.44166e-11
2.93756e-16
-1.02547e-15
7.60061e-11
6.88443e-16
3.1179e-17
6.07499e-11
8.50196e-16
4.86694e-18
4.82806e-11
1.16239e-15
2.59256e-17
3.81975e-11
9.4043e-17
2.24592e-16
3.05238e-10
7.14368e-15
1.7052e-14
3.00504e-10
-4.2772e-15
-1.94206e-14
2.86858e-10
4.39569e-15
2.19588e-14
2.65942e-10
-2.16128e-15
-2.35936e-14
2.39885e-10
1.59691e-15
1.52042e-14
2.11124e-10
-1.12931e-15
-1.64576e-14
1.81815e-10
4.77545e-16
6.82924e-15
1.53671e-10
-2.12643e-16
-7.26936e-15
1.2784e-10
2.57352e-16
2.0065e-15
1.04956e-10
2.62565e-16
-1.90558e-15
8.52359e-11
5.23568e-16
1.09316e-16
6.86155e-11
7.03281e-16
-5.42232e-17
5.48426e-11
9.34506e-16
-6.04427e-17
4.35856e-11
1.16861e-15
2.59054e-17
3.44829e-11
5.95594e-18
2.37609e-16
2.70841e-10
3.73641e-15