/*--------------------------------*- C++ -*----------------------------------*\
  =========                 |
  \\      /  F ield         | OpenFOAM: The Open Source CFD Toolbox
   \\    /   O peration     | Website:  https://openfoam.org
    \\  /    A nd           | Version:  7
     \\/     M anipulation  |
\*---------------------------------------------------------------------------*/
FoamFile
{
    version     2.0;
    format      ascii;
    class       volVectorField;
    location    "100";
    object      U;
}
// * * * * * * * * * * * * * * * * * * * * * * * * * * * * * * * * * * * * * //

dimensions      [0 1 -1 0 0 0 0];

internalField   nonuniform List<vector> 
43305
(
(0.624982 -2.57722e-08 2.38542e-09)
(0.624984 -8.24518e-08 2.42926e-09)
(0.624987 -1.8845e-08 7.89883e-09)
(0.625002 -3.15666e-07 3.11269e-08)
(0.624985 -1.44452e-07 2.61275e-09)
(0.624988 -6.0486e-08 8.0564e-09)
(0.625004 2.26433e-07 8.82684e-08)
(0.624991 -1.20663e-08 1.31353e-08)
(0.625005 -2.82538e-07 1.05672e-07)
(0.624999 3.87968e-07 -4.10485e-08)
(0.624985 -2.11508e-07 2.00821e-09)
(0.624989 -1.05319e-07 8.90238e-09)
(0.625004 3.63728e-07 2.19092e-08)
(0.624992 -3.8664e-08 1.3536e-08)
(0.625006 2.00928e-07 2.71146e-07)
(0.625 -3.16575e-09 -1.01843e-07)
(0.624994 -6.38639e-09 1.79405e-08)
(0.625007 -2.44616e-07 2.17784e-07)
(0.625001 3.42264e-07 -1.34856e-07)
(0.624999 -3.05799e-07 3.65733e-08)
(0.624985 -2.79148e-07 2.01703e-09)
(0.624989 -1.54292e-07 7.11191e-09)
(0.625005 8.59569e-07 1.00264e-07)
(0.624992 -6.65379e-08 1.47231e-08)
(0.625006 3.11163e-07 7.94597e-08)
(0.625001 6.10656e-08 -3.25717e-08)
(0.624995 -2.00831e-08 1.86891e-08)
(0.625008 1.75257e-07 4.83623e-07)
(0.625003 -2.10187e-08 -3.11067e-07)
(0.625001 1.39047e-07 9.20661e-08)
(0.624997 -2.18706e-09 2.14926e-08)
(0.625009 -2.03669e-07 3.51819e-07)
(0.625004 2.91601e-07 -2.60043e-07)
(0.625002 -2.74594e-07 1.22064e-07)
(0.625001 3.81766e-07 -4.05339e-08)
(0.624985 -3.50209e-07 1.2446e-09)
(0.624989 -2.03867e-07 7.71013e-09)
(0.625005 1.00814e-06 1.84045e-08)
(0.624992 -9.75834e-08 1.20834e-08)
(0.625006 7.50055e-07 3.08156e-07)
(0.625001 -2.62983e-07 -1.13883e-07)
(0.624995 -3.35387e-08 1.9942e-08)
(0.625008 2.59247e-07 1.83591e-07)
(0.625003 3.28962e-08 -1.10828e-07)
(0.625002 2.03059e-07 2.88743e-08)
(0.624997 -6.22545e-09 2.26245e-08)
(0.625009 1.52801e-07 6.64128e-07)
(0.625005 -3.77614e-08 -5.41933e-07)
(0.625003 1.28374e-07 2.84692e-07)
(0.625002 3.18502e-08 -1.00795e-07)
(0.624998 5.3342e-10 2.41078e-08)
(0.62501 -1.58197e-07 4.97851e-07)
(0.625006 2.39316e-07 -4.04077e-07)
(0.625005 -2.38012e-07 2.40687e-07)
(0.625003 3.39959e-07 -1.33327e-07)
(0.624995 -2.15737e-07 2.64223e-08)
(0.624985 -4.16488e-07 1.14247e-09)
(0.624989 -2.56638e-07 5.3565e-09)
(0.625005 1.44301e-06 1.08265e-07)
(0.624992 -1.29311e-07 1.28436e-08)
(0.625007 8.72633e-07 6.70872e-08)
(0.625001 -2.22822e-07 -2.71875e-08)
(0.624995 -4.9304e-08 1.67589e-08)
(0.625008 6.43809e-07 5.54731e-07)
(0.625003 -2.684e-07 -3.48614e-07)
(0.625002 5.87726e-07 1.03352e-07)
(0.624997 -8.97202e-09 2.37645e-08)
(0.62501 2.15968e-07 3.15241e-07)
(0.625005 5.92469e-09 -2.29125e-07)
(0.625004 1.79115e-07 1.00514e-07)
(0.625003 1.10756e-07 -3.26621e-08)
(0.624998 2.88433e-09 2.54949e-08)
(0.62501 1.36808e-07 8.09767e-07)
(0.625007 -5.14621e-08 -7.34992e-07)
(0.625005 1.17396e-07 5.00815e-07)
(0.625004 1.39509e-08 -3.09857e-07)
(0.624997 7.06305e-08 6.27028e-08)
(0.624999 2.12391e-09 2.49393e-08)
(0.625011 -1.13562e-07 6.43797e-07)
(0.625008 1.84555e-07 -5.55918e-07)
(0.625007 -1.98171e-07 3.78853e-07)
(0.625006 2.92555e-07 -2.57574e-07)
(0.624998 -1.90807e-07 8.65455e-08)
(0.624997 2.5822e-07 -2.74835e-08)
(0.624985 -4.83246e-07 2.17027e-10)
(0.624989 -3.05903e-07 5.98348e-09)
(0.625005 1.5659e-06 1.68682e-08)
(0.624993 -1.63966e-07 9.28194e-09)
(0.625007 1.25685e-06 3.33525e-07)
(0.625002 -5.05427e-07 -1.21726e-07)
(0.624995 -6.57993e-08 1.73095e-08)
(0.625008 7.39448e-07 1.55339e-07)
(0.625003 -2.36423e-07 -9.33208e-08)
(0.625002 6.44374e-07 2.54379e-08)
(0.624997 -1.33312e-08 2.04141e-08)
(0.62501 5.53379e-07 7.70842e-07)
(0.625005 -2.74498e-07 -6.15507e-07)
(0.625004 5.25007e-07 3.19731e-07)
(0.625003 -1.84688e-07 -1.1288e-07)
(0.624998 7.10171e-09 2.64652e-08)
(0.625011 1.87235e-07 4.64393e-07)
(0.625007 -1.82002e-08 -3.71623e-07)
(0.625006 1.55122e-07 2.13282e-07)
(0.625005 8.31757e-08 -1.11285e-07)
(0.624998 7.85073e-08 2.10675e-08)
(0.624999 8.19435e-09 2.6552e-08)
(0.625011 1.27232e-07 9.11345e-07)
(0.625008 -6.28231e-08 -8.86628e-07)
(0.625007 1.07762e-07 6.8324e-07)
(0.625006 -2.81672e-09 -5.39403e-07)
(0.625 6.97122e-08 1.92025e-07)
(0.624999 -3.88439e-08 -6.76457e-08)
(0.624999 2.95289e-09 2.49594e-08)
(0.625011 -6.92371e-08 7.71609e-07)
(0.625008 1.33214e-07 -7.03042e-07)
(0.625008 -1.5372e-07 5.2616e-07)
(0.625008 2.42861e-07 -4.0119e-07)
(0.625001 -1.62876e-07 1.67459e-07)
(0.625 2.28457e-07 -9.05058e-08)
(0.624992 -1.30516e-07 1.32053e-08)
(0.624986 -5.38993e-07 -2.6869e-10)
(0.624989 -3.56304e-07 2.63132e-09)
(0.625005 1.92289e-06 1.13465e-07)
(0.624993 -1.96547e-07 1.00421e-08)
(0.625007 1.35539e-06 6.09876e-08)
(0.625002 -4.45279e-07 -2.4357e-08)
(0.624995 -8.49685e-08 1.29117e-08)
(0.625008 1.07606e-06 6.04653e-07)
(0.625003 -4.99429e-07 -3.74041e-07)
(0.625002 9.42503e-07 1.11638e-07)
(0.624997 -1.84049e-08 2.05339e-08)
(0.62501 6.24718e-07 2.71809e-07)
(0.625005 -2.49081e-07 -1.93296e-07)
(0.625004 5.70809e-07 8.83305e-08)
(0.625003 -1.37933e-07 -2.7125e-08)
(0.624998 1.01866e-08 2.31745e-08)
(0.625011 4.85182e-07 9.45867e-07)
(0.625007 -2.80091e-07 -8.45947e-07)
(0.625006 4.64266e-07 5.68113e-07)
(0.625005 -1.91101e-07 -3.4762e-07)
(0.624998 3.06162e-07 6.97737e-08)
(0.624999 1.63148e-08 2.72303e-08)
(0.625011 1.74566e-07 6.18266e-07)
(0.625008 -4.06477e-08 -5.27478e-07)
(0.625007 1.35831e-07 3.50476e-07)
(0.625007 5.70099e-08 -2.30077e-07)
(0.625 7.56788e-08 7.1176e-08)
(0.624999 -3.56252e-08 -2.10415e-08)
(0.624999 1.10305e-08 2.66874e-08)
(0.625011 1.24873e-07 9.80456e-07)
(0.625008 -7.14449e-08 -9.87062e-07)
(0.625008 1.01745e-07 8.29553e-07)
(0.625008 -1.67287e-08 -7.30923e-07)
(0.625002 6.83217e-08 3.36637e-07)
(0.625001 -4.16149e-08 -2.07376e-07)
(0.624994 4.994e-08 3.04794e-08)
(0.624999 3.37948e-09 2.37212e-08)
(0.625011 -3.15755e-08 8.68422e-07)
(0.625009 8.43642e-08 -8.26928e-07)
(0.625009 -1.10276e-07 6.69986e-07)
(0.625009 1.89847e-07 -5.52765e-07)
(0.625003 -1.33719e-07 2.60399e-07)
(0.625002 1.95457e-07 -1.77571e-07)
(0.624995 -1.11573e-07 4.18892e-08)
(0.624992 1.59766e-07 -1.42915e-08)
(0.624986 -5.94288e-07 -1.4148e-09)
(0.624989 -3.99343e-07 2.26195e-09)
(0.625005 1.96631e-06 1.63562e-08)
(0.624993 -2.30866e-07 4.8491e-09)
(0.625007 1.66854e-06 3.5065e-07)
(0.625002 -6.54262e-07 -1.26986e-07)
(0.624995 -1.03292e-07 1.32709e-08)
(0.625008 1.14908e-06 1.37973e-07)
(0.625004 -4.48919e-07 -8.37226e-08)
(0.625002 9.3531e-07 2.48001e-08)
(0.624997 -2.59604e-08 1.56471e-08)
(0.62501 9.21273e-07 8.47622e-07)
(0.625005 -4.94913e-07 -6.66863e-07)
(0.625004 8.41016e-07 3.45787e-07)
(0.625003 -4.27197e-07 -1.20375e-07)
(0.624998 1.26374e-08 2.28309e-08)
(0.625011 5.38806e-07 4.08005e-07)
(0.625007 -2.59457e-07 -3.19082e-07)
(0.625006 4.98067e-07 1.85495e-07)
(0.625005 -1.49875e-07 -9.32706e-08)
(0.624998 3.03486e-07 1.77777e-08)
(0.624999 2.36588e-08 2.42962e-08)
(0.625011 4.39919e-07 1.06388e-06)
(0.625008 -2.84425e-07 -1.02857e-06)
(0.625007 4.13029e-07 7.84368e-07)
(0.625007 -1.97675e-07 -6.13656e-07)
(0.625 2.83082e-07 2.13622e-07)
(0.624999 -3.074e-07 -7.61155e-08)
(0.624999 2.11177e-08 2.71773e-08)
(0.625011 1.77388e-07 7.58368e-07)
(0.625008 -6.24343e-08 -6.8313e-07)
(0.625008 1.25209e-07 5.01649e-07)
(0.625008 3.34048e-08 -3.73365e-07)
(0.625002 7.22982e-08 1.46796e-07)
(0.625001 -3.58755e-08 -7.24094e-08)
(0.624994 5.18463e-08 9.26139e-09)
(0.624999 1.2456e-08 2.54451e-08)
(0.625011 1.27313e-07 1.01002e-06)
(0.625009 -7.98955e-08 -1.04966e-06)
(0.625009 9.90853e-08 9.29499e-07)
(0.625009 -2.8617e-08 -8.81667e-07)
(0.625004 6.68133e-08 4.58462e-07)
(0.625003 -4.37932e-08 -3.65623e-07)
(0.624996 4.73562e-08 9.03614e-08)
(0.624994 -4.85575e-08 -3.41597e-08)
(0.624999 3.54042e-09 2.17713e-08)
(0.625011 -3.37969e-10 9.24687e-07)
(0.625009 4.4001e-08 -9.17144e-07)
(0.625009 -6.73848e-08 7.93025e-07)
(0.62501 1.3973e-07 -7.00018e-07)
(0.625005 -1.02501e-07 3.58477e-07)
(0.625005 1.61475e-07 -2.78624e-07)
(0.624998 -9.2221e-08 8.08788e-08)
(0.624995 1.3796e-07 -4.65329e-08)
(0.624989 -7.58443e-08 6.58592e-09)
(0.624986 -6.2346e-07 -2.69268e-09)
(0.624989 -4.43255e-07 -1.65055e-09)
(0.625005 2.18296e-06 1.16454e-07)
(0.624993 -2.61397e-07 3.92493e-09)
(0.625007 1.69794e-06 5.75089e-08)
(0.625002 -5.44269e-07 -2.20995e-08)
(0.624995 -1.23891e-07 6.89504e-09)
(0.625008 1.42139e-06 6.39333e-07)
(0.625004 -6.45382e-07 -3.92364e-07)
(0.625002 1.11638e-06 1.17652e-07)
(0.624997 -3.35643e-08 1.53268e-08)
(0.62501 9.70484e-07 2.39559e-07)
(0.625005 -4.52025e-07 -1.69909e-07)
(0.625004 8.32793e-07 8.48779e-08)
(0.625003 -4.02601e-07 -2.33017e-08)
(0.624998 1.27302e-08 1.76904e-08)
(0.625011 8.04485e-07 1.04841e-06)
(0.625007 -4.91506e-07 -9.26064e-07)
(0.625006 7.4267e-07 6.1792e-07)
(0.625005 -4.14197e-07 -3.71866e-07)
(0.624998 4.87022e-07 7.34368e-08)
(0.624999 3.04766e-08 2.34798e-08)
(0.625011 4.83793e-07 5.58909e-07)
(0.625008 -2.68581e-07 -4.61456e-07)
(0.625007 4.35791e-07 3.07959e-07)
(0.625007 -1.60337e-07 -1.94539e-07)
(0.625 2.81018e-07 6.00287e-08)
(0.625 -3.2587e-07 -1.81589e-08)
(0.624999 3.06042e-08 2.47378e-08)
(0.625011 4.12999e-07 1.1345e-06)
(0.625008 -2.87473e-07 -1.146e-06)
(0.625008 3.74682e-07 9.58513e-07)
(0.625008 -2.03698e-07 -8.43196e-07)
(0.625002 2.60643e-07 3.7797e-07)
(0.625002 -2.80083e-07 -2.33761e-07)
(0.624995 1.94219e-07 3.45897e-08)
(0.624999 2.33228e-08 2.57397e-08)
(0.625011 1.90212e-07 8.64997e-07)
(0.625009 -8.6263e-08 -8.20026e-07)
(0.625009 1.24453e-07 6.53265e-07)
(0.625009 1.10412e-08 -5.29893e-07)
(0.625004 7.00052e-08 2.37836e-07)
(0.625004 -3.57286e-08 -1.5461e-07)
(0.624997 4.63941e-08 3.04281e-08)
(0.624995 -6.16644e-08 -9.32682e-09)
(0.624999 1.31258e-08 2.34389e-08)
(0.625011 1.3408e-07 1.0123e-06)
(0.625009 -8.81022e-08 -1.07011e-06)
(0.625009 1.01073e-07 9.95558e-07)
(0.62501 -3.80326e-08 -9.81583e-07)
(0.625005 6.61964e-08 5.56204e-07)
(0.625005 -4.51337e-08 -4.99175e-07)
(0.624999 4.45733e-08 1.6059e-07)
(0.624997 -4.27697e-08 -1.02358e-07)
(0.624991 2.24849e-08 1.15888e-08)
(0.624999 3.6527e-09 1.91427e-08)
(0.625011 2.23217e-08 9.38401e-07)
(0.625009 1.11678e-08 -9.64306e-07)
(0.625009 -3.13037e-08 8.83166e-07)
(0.62501 9.16553e-08 -8.24096e-07)
(0.625006 -7.28333e-08 4.53139e-07)
(0.625006 1.25528e-07 -3.86051e-07)
(0.625001 -7.38299e-08 1.25727e-07)
(0.624998 1.15828e-07 -9.35081e-08)
(0.624992 -5.83563e-08 1.90329e-08)
(0.624988 1.09734e-07 -4.71941e-09)
(0.624986 -6.4606e-07 -3.23471e-09)
(0.624989 -4.69535e-07 -2.78196e-09)
(0.625005 2.07924e-06 1.48448e-08)
(0.624993 -2.94107e-07 -2.18605e-09)
(0.625007 1.88945e-06 3.59384e-07)
(0.625002 -6.96668e-07 -1.29128e-07)
(0.624995 -1.43633e-07 4.91094e-09)
(0.625008 1.43561e-06 1.2462e-07)
(0.625004 -5.50196e-07 -7.69399e-08)
(0.625002 1.02276e-06 2.36473e-08)
(0.624997 -4.38776e-08 8.11968e-09)
(0.62501 1.20919e-06 9.03078e-07)
(0.625005 -6.38159e-07 -7.04989e-07)
(0.625004 1.00281e-06 3.65082e-07)
(0.625003 -6.70873e-07 -1.25326e-07)
(0.624998 1.2241e-08 1.66618e-08)
(0.625011 8.34375e-07 3.59765e-07)
(0.625007 -4.53367e-07 -2.79059e-07)
(0.625006 7.31588e-07 1.71918e-07)
(0.625005 -3.86838e-07 -8.06818e-08)
(0.624998 4.81291e-07 1.52449e-08)
(0.624999 3.50186e-08 1.8446e-08)
(0.625011 7.26539e-07 1.18527e-06)
(0.625008 -4.89594e-07 -1.13617e-06)
(0.625007 6.5932e-07 8.60145e-07)
(0.625007 -4.02191e-07 -6.64371e-07)
(0.625 4.47374e-07 2.2519e-07)
(0.625 -5.69624e-07 -8.25491e-08)
(0.624999 3.96575e-08 2.36461e-08)
(0.625011 4.56338e-07 7.04456e-07)
(0.625008 -2.7766e-07 -6.14748e-07)
(0.625008 3.90094e-07 4.46627e-07)
(0.625008 -1.68886e-07 -3.22261e-07)
(0.625002 2.57969e-07 1.23052e-07)
(0.625002 -2.9353e-07 -6.28133e-08)
(0.624995 1.90299e-07 8.59909e-09)
(0.624999 3.37465e-08 2.36829e-08)
(0.625011 3.9846e-07 1.14942e-06)
(0.625009 -2.89146e-07 -1.21021e-06)
(0.625009 3.49551e-07 1.07378e-06)
(0.625009 -2.08642e-07 -1.02543e-06)
(0.625004 2.41568e-07 5.20682e-07)
(0.625004 -2.5407e-07 -4.176e-07)
(0.624997 1.72028e-07 1.02864e-07)
(0.624995 -2.50748e-07 -3.88064e-08)
(0.624999 2.42953e-08 2.36269e-08)
(0.625011 2.10218e-07 9.29366e-07)
(0.625009 -1.11029e-07 -9.2053e-07)
(0.625009 1.34003e-07 7.8788e-07)
(0.62501 -1.11098e-08 -6.86108e-07)
(0.625005 7.05112e-08 3.37215e-07)
(0.625005 -3.63053e-08 -2.54761e-07)
(0.624999 4.10776e-08 6.46976e-08)
(0.624997 -4.77532e-08 -3.21379e-08)
(0.624991 8.53807e-09 3.82221e-09)
(0.624999 1.34707e-08 2.07462e-08)
(0.625011 1.43362e-07 9.85031e-07)
(0.625009 -9.77703e-08 -1.06115e-06)
(0.625009 1.05983e-07 1.0209e-06)
(0.62501 -4.7535e-08 -1.04452e-06)
(0.625006 6.63045e-08 6.22377e-07)
(0.625006 -4.68958e-08 -6.06847e-07)
(0.625001 4.17615e-08 2.1987e-07)
(0.624999 -3.64395e-08 -1.85739e-07)
(0.624994 2.95439e-08 3.16108e-08)
(0.62499 1.46696e-08 -1.01746e-08)
(0.624999 3.70761e-09 1.62302e-08)
(0.625011 3.84132e-08 9.09912e-07)
(0.625009 -1.19807e-08 -9.67805e-07)
(0.625009 -1.61822e-09 9.31612e-07)
(0.62501 5.1915e-08 -9.14823e-07)
(0.625006 -4.41193e-08 5.33152e-07)
(0.625007 9.16087e-08 -4.91238e-07)
(0.625002 -5.58208e-08 1.73883e-07)
(0.625001 9.48335e-08 -1.48343e-07)
(0.624995 -4.20208e-08 3.51453e-08)
(0.624992 9.34553e-08 -1.45614e-08)
(0.624985 8.49101e-09 7.72399e-10)
(0.624986 -6.48984e-07 -4.06593e-09)
(0.624989 -4.9273e-07 -5.96236e-09)
(0.625005 2.19092e-06 1.18141e-07)
(0.624993 -3.18053e-07 -4.52435e-09)
(0.625007 1.79238e-06 5.2439e-08)
(0.625002 -5.50021e-07 -1.97358e-08)
(0.624995 -1.66678e-07 -2.7319e-09)
(0.625008 1.60465e-06 6.56501e-07)
(0.625004 -6.91491e-07 -4.0101e-07)
(0.625002 1.12191e-06 1.20217e-07)
(0.624997 -5.53954e-08 5.01251e-09)
(0.62501 1.20827e-06 2.11826e-07)
(0.625005 -5.55422e-07 -1.52816e-07)
(0.625004 9.20148e-07 8.01608e-08)
(0.625003 -6.30819e-07 -2.13518e-08)
(0.624998 8.65996e-09 8.9847e-09)
(0.625011 1.04832e-06 1.12672e-06)
(0.625007 -6.32077e-07 -9.87735e-07)
(0.625006 8.92251e-07 6.55355e-07)
(0.625005 -6.24858e-07 -3.89054e-07)
(0.624998 6.55261e-07 7.56098e-08)
(0.624999 3.86693e-08 1.67173e-08)
(0.625011 7.43175e-07 4.98421e-07)
(0.625008 -4.5432e-07 -4.03956e-07)
(0.625007 6.4409e-07 2.80664e-07)
(0.625007 -3.70502e-07 -1.67915e-07)
(0.625 4.38692e-07 5.18053e-08)
(0.625 -5.64265e-07 -1.73644e-08)
(0.624999 4.65211e-08 1.89491e-08)
(0.625011 6.79927e-07 1.26599e-06)
(0.625008 -4.88905e-07 -1.27401e-06)
(0.625008 5.9733e-07 1.05837e-06)
(0.625008 -3.92285e-07 -9.23706e-07)
(0.625002 4.08703e-07 4.02311e-07)
(0.625002 -5.12292e-07 -2.54043e-07)
(0.624995 2.87074e-07 3.76712e-08)
(0.624999 4.37908e-08 2.24839e-08)
(0.625011 4.47921e-07 8.26717e-07)
(0.625009 -2.89057e-07 -7.58737e-07)
(0.625009 3.62563e-07 5.95624e-07)
(0.625009 -1.76973e-07 -4.66936e-07)
(0.625004 2.37561e-07 2.02327e-07)
(0.625004 -2.61633e-07 -1.3419e-07)
(0.624997 1.68799e-07 2.81773e-08)
(0.624995 -2.7407e-07 -7.91796e-09)
(0.624999 3.50782e-08 2.21033e-08)
(0.625011 3.92353e-07 1.1303e-06)
(0.625009 -2.90154e-07 -1.215e-06)
(0.625009 3.34755e-07 1.14091e-06)
(0.62501 -2.12484e-07 -1.14284e-06)
(0.625005 2.26949e-07 6.35314e-07)
(0.625005 -2.32203e-07 -5.77645e-07)
(0.624999 1.51195e-07 1.84189e-07)
(0.624997 -2.10105e-07 -1.16212e-07)
(0.624991 8.85791e-08 1.31422e-08)
(0.624999 2.46465e-08 2.08388e-08)
(0.625011 2.3148e-07 9.45953e-07)
(0.625009 -1.37672e-07 -9.76006e-07)
(0.625009 1.49955e-07 8.86768e-07)
(0.62501 -3.56501e-08 -8.23222e-07)
(0.625006 7.46272e-08 4.363e-07)
(0.625006 -3.97817e-08 -3.65525e-07)
(0.625001 3.69053e-08 1.07049e-07)
(0.625 -3.36024e-08 -7.39623e-08)
(0.624994 2.14487e-08 1.06845e-08)
(0.624991 4.49554e-08 -5.42526e-10)
(0.624999 1.36398e-08 1.75185e-08)
(0.625011 1.53573e-07 9.30935e-07)
(0.625009 -1.08257e-07 -1.02213e-06)
(0.625009 1.13989e-07 1.01791e-06)
(0.62501 -5.69066e-08 -1.06589e-06)
(0.625006 6.81016e-08 6.65294e-07)
(0.625007 -4.88857e-08 -6.80778e-07)
(0.625002 3.95464e-08 2.69008e-07)
(0.625001 -3.03352e-08 -2.57636e-07)
(0.624996 3.61601e-08 5.83375e-08)
(0.624993 2.37731e-08 -2.83096e-08)
(0.624987 1.73289e-07 -1.32399e-09)
(0.624999 3.69227e-09 1.31075e-08)
(0.625011 4.88226e-08 8.44735e-07)
(0.625009 -2.83303e-08 -9.27583e-07)
(0.625009 1.96993e-08 9.36799e-07)
(0.62501 1.94786e-08 -9.62453e-07)
(0.625006 -2.02897e-08 5.90785e-07)
(0.625007 5.88012e-08 -5.81276e-07)
(0.625003 -3.968e-08 2.20794e-07)
(0.625003 7.41608e-08 -2.07366e-07)
(0.624998 -2.84489e-08 5.30288e-08)
(0.624995 7.85652e-08 -3.13055e-08)
(0.624989 2.06119e-08 7.53717e-10)
(0.624982 1.53932e-07 -2.67692e-10)
(0.624986 -6.63162e-07 -3.0041e-09)
(0.624989 -5.03374e-07 -6.70041e-09)
(0.625005 2.02983e-06 1.31772e-08)
(0.624993 -3.42673e-07 -9.28797e-09)
(0.625007 1.89045e-06 3.64918e-07)
(0.625002 -6.16487e-07 -1.28768e-07)
(0.624996 -1.88277e-07 -7.27018e-09)
(0.625008 1.51254e-06 1.08869e-07)
(0.625004 -5.61482e-07 -6.94094e-08)
(0.625002 9.45421e-07 2.12384e-08)
(0.624997 -7.10809e-08 -3.84067e-09)
(0.62501 1.35946e-06 9.33045e-07)
(0.625005 -6.87392e-07 -7.25994e-07)
(0.625004 1.01528e-06 3.73023e-07)
(0.625004 -8.03124e-07 -1.29436e-07)
(0.624998 2.65944e-09 4.94372e-09)
(0.625011 1.03336e-06 3.14669e-07)
(0.625007 -5.57908e-07 -2.47409e-07)
(0.625006 8.18442e-07 1.58154e-07)
(0.625005 -5.78735e-07 -7.42293e-08)
(0.624998 6.48334e-07 1.41838e-08)
(0.624999 3.89567e-08 8.87668e-09)
(0.625011 9.40476e-07 1.28325e-06)
(0.625008 -6.28363e-07 -1.22354e-06)
(0.625007 7.97754e-07 9.18998e-07)
(0.625007 -5.81136e-07 -7.01902e-07)
(0.625 5.91105e-07 2.32607e-07)
(0.625 -7.20296e-07 -8.72419e-08)
(0.624999 5.23421e-08 1.67561e-08)
(0.625011 6.90999e-07 6.38299e-07)
(0.625008 -4.55859e-07 -5.45221e-07)
(0.625008 5.78047e-07 4.03867e-07)
(0.625008 -3.55322e-07 -2.79438e-07)
(0.625002 3.95884e-07 1.05733e-07)
(0.625002 -5.0503e-07 -5.94123e-08)
(0.624995 2.49502e-07 9.1113e-09)
(0.624999 5.17533e-08 1.81224e-08)
(0.625011 6.53247e-07 1.27834e-06)
(0.625009 -4.88475e-07 -1.34928e-06)
(0.625009 5.5695e-07 1.19097e-06)
(0.625009 -3.85628e-07 -1.13484e-06)
(0.625004 3.75399e-07 5.59944e-07)
(0.625004 -4.57457e-07 -4.57474e-07)
(0.624997 2.56939e-07 1.12632e-07)
(0.624995 -4.50146e-07 -4.16467e-08)
(0.624999 4.54446e-08 2.09665e-08)
(0.625011 4.53058e-07 9.10368e-07)
(0.625009 -3.02792e-07 -8.77029e-07)
(0.625009 3.51674e-07 7.35638e-07)
(0.62501 -1.85794e-07 -6.22554e-07)
(0.625005 2.22471e-07 2.91677e-07)
(0.625005 -2.34215e-07 -2.24494e-07)
(0.624999 1.48057e-07 5.76477e-08)
(0.624997 -2.25055e-07 -2.7393e-08)
(0.624992 8.38035e-08 3.29419e-09)
(0.624999 3.54885e-08 1.97046e-08)
(0.625011 3.91552e-07 1.07678e-06)
(0.625009 -2.9214e-07 -1.18348e-06)
(0.625009 3.26991e-07 1.15197e-06)
(0.62501 -2.15269e-07 -1.20784e-06)
(0.625006 2.16977e-07 7.10741e-07)
(0.625006 -2.1597e-07 -7.07618e-07)
(0.625001 1.33843e-07 2.54846e-07)
(0.625 -1.70647e-07 -2.13019e-07)
(0.624994 9.5466e-08 3.56663e-08)
(0.624991 -3.30005e-08 -1.18714e-08)
(0.624999 2.47109e-08 1.76408e-08)
(0.625011 2.52585e-07 9.17552e-07)
(0.625009 -1.62805e-07 -9.82591e-07)
(0.625009 1.70951e-07 9.4228e-07)
(0.62501 -6.13646e-08 -9.23797e-07)
(0.625006 8.29395e-08 5.23463e-07)
(0.625007 -4.69203e-08 -4.77041e-07)
(0.625003 3.49418e-08 1.55054e-07)
(0.625002 -2.1622e-08 -1.26459e-07)
(0.624997 3.39614e-08 2.26631e-08)
(0.624994 6.38617e-08 -2.3758e-09)
(0.624988 2.81053e-07 -1.52299e-09)
(0.624999 1.37101e-08 1.41218e-08)
(0.625011 1.64103e-07 8.50715e-07)
(0.625009 -1.19122e-07 -9.55682e-07)
(0.625009 1.23701e-07 9.8428e-07)
(0.62501 -6.78162e-08 -1.05824e-06)
(0.625006 7.09037e-08 6.80553e-07)
(0.625007 -5.2734e-08 -7.30029e-07)
(0.625003 3.78683e-08 3.02999e-07)
(0.625003 -2.57291e-08 -3.182e-07)
(0.624999 4.12652e-08 8.11005e-08)
(0.624996 3.3316e-08 -5.74202e-08)
(0.62499 1.71466e-07 -7.54437e-09)
(0.624984 2.91449e-07 2.18367e-09)
(0.624999 3.74317e-09 1.00021e-08)
(0.625011 5.56963e-08 7.48294e-07)
(0.625009 -3.86212e-08 -8.50177e-07)
(0.625009 3.47266e-08 8.99366e-07)
(0.62501 -3.45688e-09 -9.66588e-07)
(0.625006 -8.01591e-10 6.20492e-07)
(0.625007 3.1395e-08 -6.47912e-07)
(0.625003 -2.4423e-08 2.61452e-07)
(0.625003 5.54776e-08 -2.66018e-07)
(0.625 -1.72864e-08 7.19455e-08)
(0.624998 6.63823e-08 -5.13161e-08)
(0.624992 3.07786e-08 1.11014e-09)
(0.624985 1.38734e-07 1.0944e-09)
(0.624976 1.68858e-07 1.43228e-09)
(0.624986 -6.96698e-07 -2.23783e-09)
(0.624989 -5.23424e-07 -5.47619e-09)
(0.625005 2.06533e-06 1.16122e-07)
(0.624993 -3.61657e-07 -1.10714e-08)
(0.625007 1.74607e-06 4.50984e-08)
(0.625002 -4.29402e-07 -1.79981e-08)
(0.624996 -2.13707e-07 -1.25872e-08)
(0.625008 1.59847e-06 6.68325e-07)
(0.625004 -6.2274e-07 -3.99705e-07)
(0.625002 1.01237e-06 1.22389e-07)
(0.624997 -9.03372e-08 -1.05113e-08)
(0.62501 1.26976e-06 1.80686e-07)
(0.625005 -5.71416e-07 -1.34774e-07)
(0.625004 8.57416e-07 7.18209e-08)
(0.625004 -6.66856e-07 -2.03942e-08)
(0.624998 -8.17198e-09 -4.83623e-09)
(0.625011 1.17246e-06 1.17215e-06)
(0.625007 -6.83646e-07 -1.02563e-06)
(0.625006 9.11191e-07 6.73229e-07)
(0.625005 -7.30154e-07 -4.03597e-07)
(0.624998 7.7837e-07 7.78474e-08)
(0.624999 3.62775e-08 4.18542e-09)
(0.625011 9.14157e-07 4.36526e-07)
(0.625008 -5.58698e-07 -3.55778e-07)
(0.625007 7.29637e-07 2.5381e-07)
(0.625007 -5.27623e-07 -1.51255e-07)
(0.625001 5.78158e-07 4.78399e-08)
(0.625 -6.38942e-07 -1.64691e-08)
(0.624999 5.45817e-08 9.13215e-09)
(0.625011 8.75475e-07 1.37894e-06)
(0.625008 -6.26647e-07 -1.38392e-06)
(0.625008 7.27161e-07 1.1395e-06)
(0.625008 -5.44146e-07 -9.8568e-07)
(0.625002 5.28584e-07 4.2009e-07)
(0.625002 -6.48089e-07 -2.69301e-07)
(0.624995 2.92137e-07 3.97828e-08)
(0.624999 5.85277e-08 1.57411e-08)
(0.625011 6.65297e-07 7.6537e-07)
(0.625009 -4.60223e-07 -6.84674e-07)
(0.625009 5.35122e-07 5.41102e-07)
(0.625009 -3.44051e-07 -4.08253e-07)
(0.625004 3.57951e-07 1.74056e-07)
(0.625004 -4.47143e-07 -1.22825e-07)
(0.624997 2.27579e-07 2.93952e-08)
(0.624995 -4.72478e-07 -6.99353e-09)
(0.624999 5.38871e-08 1.72461e-08)
(0.625011 6.3841e-07 1.24946e-06)
(0.625009 -4.87614e-07 -1.35189e-06)
(0.625009 5.33325e-07 1.26639e-06)
(0.62501 -3.81863e-07 -1.27419e-06)
(0.625005 3.50465e-07 6.89373e-07)
(0.625005 -4.11073e-07 -6.38797e-07)
(0.625 2.28538e-07 2.02424e-07)
(0.624997 -3.74521e-07 -1.25166e-07)
(0.624992 1.61185e-07 1.32596e-08)
(0.624999 4.58228e-08 1.85944e-08)
(0.625011 4.64423e-07 9.453e-07)
(0.625009 -3.2047e-07 -9.54111e-07)
(0.625009 3.52591e-07 8.49879e-07)
(0.62501 -1.9776e-07 -7.68541e-07)
(0.625006 2.13668e-07 3.87955e-07)
(0.625006 -2.14555e-07 -3.27315e-07)
(0.625001 1.3035e-07 9.50671e-08)
(0.625 -1.76644e-07 -6.32256e-08)
(0.624994 9.83215e-08 9.08657e-09)
(0.624991 1.88793e-09 -6.32703e-10)
(0.624999 3.54659e-08 1.67816e-08)
(0.625011 3.95632e-07 1.00092e-06)
(0.625009 -2.95924e-07 -1.11732e-06)
(0.625009 3.24509e-07 1.1286e-06)
(0.62501 -2.17644e-07 -1.21391e-06)
(0.625006 2.10274e-07 7.53805e-07)
(0.625007 -2.05526e-07 -7.93966e-07)
(0.625003 1.20844e-07 3.13281e-07)
(0.625002 -1.36918e-07 -2.98888e-07)
(0.624997 1.02821e-07 6.6351e-08)
(0.624994 1.1976e-08 -3.29197e-08)
(0.624988 4.5846e-07 -7.92419e-10)
(0.624999 2.46863e-08 1.42159e-08)
(0.625011 2.71376e-07 8.51119e-07)
(0.625009 -1.86239e-07 -9.42631e-07)
(0.625009 1.92045e-07 9.49549e-07)
(0.62501 -8.91025e-08 -9.79104e-07)
(0.625006 9.38366e-08 5.87119e-07)
(0.625007 -5.91425e-08 -5.76549e-07)
(0.625003 3.55108e-08 2.04027e-07)
(0.625003 -1.40815e-08 -1.86175e-07)
(0.624999 4.46164e-08 3.78722e-08)
(0.624996 8.29214e-08 -1.36076e-08)
(0.62499 2.7774e-07 -6.10947e-09)
(0.624984 5.28384e-07 3.02949e-09)
(0.624999 1.37687e-08 1.07107e-08)
(0.625011 1.73589e-07 7.47645e-07)
(0.625009 -1.29809e-07 -8.62672e-07)
(0.625009 1.33873e-07 9.22761e-07)
(0.62501 -7.95258e-08 -1.02056e-06)
(0.625006 7.51858e-08 6.76516e-07)
(0.625007 -5.77717e-08 -7.49441e-07)
(0.625003 3.73884e-08 3.26345e-07)
(0.625004 -2.26478e-08 -3.6217e-07)
(0.625 4.46628e-08 1.01879e-07)
(0.624998 4.23226e-08 -8.30963e-08)
(0.624993 1.69375e-07 -8.53186e-09)
(0.624987 2.92353e-07 1.0928e-08)
(0.624978 5.93126e-07 -3.74071e-09)
(0.624999 3.74191e-09 6.94139e-09)
(0.625011 6.05693e-08 6.30112e-07)
(0.625009 -4.55668e-08 -7.4133e-07)
(0.625009 4.43767e-08 8.24991e-07)
(0.62501 -1.97994e-08 -9.26983e-07)
(0.625006 1.29511e-08 6.21643e-07)
(0.625007 8.78682e-09 -6.84245e-07)
(0.625004 -1.17639e-08 2.91126e-07)
(0.625004 3.76205e-08 -3.17468e-07)
(0.625001 -8.84965e-09 9.02836e-08)
(0.624999 5.61199e-08 -7.37677e-08)
(0.624995 3.7885e-08 1.325e-09)
(0.624989 1.25937e-07 2.02015e-10)
(0.624979 1.80607e-07 1.74497e-09)
(0.624966 3.80282e-07 -1.69469e-09)
(0.624986 -7.46842e-07 -7.03065e-10)
(0.62499 -5.5639e-07 -3.12252e-09)
(0.625005 1.93037e-06 9.30343e-09)
(0.624993 -3.88494e-07 -8.63282e-09)
(0.625007 1.77339e-06 3.59081e-07)
(0.625002 -4.51015e-07 -1.28175e-07)
(0.624996 -2.39182e-07 -1.61701e-08)
(0.625008 1.4693e-06 9.1709e-08)
(0.625004 -4.56761e-07 -6.34153e-08)
(0.625002 8.48205e-07 1.90119e-08)
(0.624997 -1.15646e-07 -1.61533e-08)
(0.62501 1.34644e-06 9.54173e-07)
(0.625005 -6.289e-07 -7.27344e-07)
(0.625004 9.20179e-07 3.81005e-07)
(0.625004 -6.76739e-07 -1.31237e-07)
(0.624999 -2.52015e-08 -1.32631e-08)
(0.625011 1.08243e-06 2.64572e-07)
(0.625007 -5.77814e-07 -2.14739e-07)
(0.625006 7.70179e-07 1.38974e-07)
(0.625005 -6.01446e-07 -7.02869e-08)
(0.624998 7.15252e-07 1.37091e-08)
(0.624999 2.83129e-08 -6.17479e-09)
(0.625011 1.04606e-06 1.3455e-06)
(0.625008 -6.81522e-07 -1.28273e-06)
(0.625007 8.21785e-07 9.51333e-07)
(0.625007 -6.60224e-07 -7.31254e-07)
(0.625001 6.91721e-07 2.39436e-07)
(0.625 -7.07275e-07 -8.89537e-08)
(0.624999 5.3669e-08 4.17604e-09)
(0.625011 8.41668e-07 5.62862e-07)
(0.625008 -5.58506e-07 -4.81601e-07)
(0.625008 6.61357e-07 3.61906e-07)
(0.625008 -4.82592e-07 -2.48669e-07)
(0.625003 5.08819e-07 9.58404e-08)
(0.625002 -5.75556e-07 -5.63572e-08)
(0.624995 2.223e-07 8.90957e-09)
(0.624999 6.16523e-08 8.27879e-09)
(0.625011 8.38064e-07 1.39554e-06)
(0.625009 -6.2634e-07 -1.47667e-06)
(0.625009 6.80925e-07 1.29118e-06)
(0.625009 -5.1716e-07 -1.22392e-06)
(0.625004 4.74863e-07 5.90834e-07)
(0.625004 -5.78866e-07 -4.8692e-07)
(0.624997 2.72147e-07 1.19421e-07)
(0.624995 -6.25657e-07 -4.30565e-08)
(0.624999 6.10012e-08 1.49053e-08)
(0.625011 6.58087e-07 8.61924e-07)
(0.625009 -4.67112e-07 -8.10891e-07)
(0.625009 5.12712e-07 6.75095e-07)
(0.62501 -3.37653e-07 -5.54011e-07)
(0.625005 3.29052e-07 2.52715e-07)
(0.625005 -3.96969e-07 -2.0294e-07)
(0.625 2.06416e-07 5.65486e-08)
(0.624998 -3.86465e-07 -2.43308e-08)
(0.624992 1.70651e-07 2.12672e-09)
(0.624999 5.44014e-08 1.54739e-08)
(0.625011 6.29598e-07 1.17892e-06)
(0.625009 -4.86696e-07 -1.31069e-06)
(0.625009 5.20204e-07 1.27432e-06)
(0.62501 -3.80096e-07 -1.35186e-06)
(0.625006 3.33807e-07 7.76189e-07)
(0.625006 -3.76499e-07 -7.88663e-07)
(0.625001 2.04701e-07 2.82117e-07)
(0.625 -3.01074e-07 -2.31643e-07)
(0.624994 1.70909e-07 3.59676e-08)
(0.624991 -4.40962e-08 -1.37768e-08)
(0.624999 4.56048e-08 1.59472e-08)
(0.625011 4.8031e-07 9.31804e-07)
(0.625009 -3.39738e-07 -9.81329e-07)
(0.625009 3.6239e-07 9.24073e-07)
(0.62501 -2.12512e-07 -8.88004e-07)
(0.625006 2.11256e-07 4.78151e-07)
(0.625007 -2.03733e-07 -4.3807e-07)
(0.625003 1.17279e-07 1.38086e-07)
(0.625002 -1.34588e-07 -1.10024e-07)
(0.624997 1.12716e-07 1.85766e-08)
(0.624994 5.65623e-08 -2.6185e-09)
(0.624988 5.93896e-07 -5.40265e-10)
(0.624999 3.53327e-08 1.35716e-08)
(0.625011 4.03145e-07 9.02672e-07)
(0.625009 -3.02787e-07 -1.02856e-06)
(0.625009 3.25634e-07 1.07017e-06)
(0.62501 -2.21335e-07 -1.18401e-06)
(0.625006 2.05935e-07 7.59897e-07)
(0.625007 -1.99837e-07 -8.45146e-07)
(0.625003 1.1223e-07 3.52253e-07)
(0.625003 -1.11531e-07 -3.71382e-07)
(0.624999 1.09233e-07 9.33462e-08)
(0.624996 5.5764e-08 -6.69529e-08)
(0.624991 4.43717e-07 -6.58086e-09)
(0.624985 7.16018e-07 2.32085e-09)
(0.624999 2.45503e-08 1.06508e-08)
(0.625011 2.87706e-07 7.53297e-07)
(0.625009 -2.06604e-07 -8.64067e-07)
(0.625009 2.125e-07 9.11677e-07)
(0.62501 -1.15453e-07 -9.85515e-07)
(0.625006 1.06905e-07 6.22015e-07)
(0.625007 -7.43388e-08 -6.50183e-07)
(0.625003 3.90405e-08 2.48881e-07)
(0.625004 -1.15341e-08 -2.47946e-07)
(0.625 5.29295e-08 5.57428e-08)
(0.624998 9.94694e-08 -3.01641e-08)
(0.624993 2.74385e-07 -9.51935e-09)
(0.624987 5.31512e-07 1.10503e-08)
(0.624978 1.01622e-06 2.51487e-11)
(0.624999 1.36909e-08 7.18301e-09)
(0.625011 1.82406e-07 6.2707e-07)
(0.625009 -1.3977e-07 -7.46751e-07)
(0.625009 1.44072e-07 8.34188e-07)
(0.62501 -9.15465e-08 -9.55178e-07)
(0.625006 8.02885e-08 6.52045e-07)
(0.625007 -6.46992e-08 -7.47906e-07)
(0.625004 3.77454e-08 3.34912e-07)
(0.625004 -2.17859e-08 -3.93676e-07)
(0.625001 4.62997e-08 1.16977e-07)
(0.625 4.96791e-08 -1.07812e-07)
(0.624995 1.6705e-07 -8.66499e-09)
(0.62499 2.93814e-07 1.15563e-08)
(0.624981 6.00199e-07 -1.50526e-08)
(0.624968 1.07948e-06 5.56213e-09)
(0.624999 3.71677e-09 4.05254e-09)
(0.625011 6.38957e-08 5.00634e-07)
(0.625009 -5.04553e-08 -6.11016e-07)
(0.625009 5.07154e-08 7.19303e-07)
(0.62501 -3.019e-08 -8.50086e-07)
(0.625006 2.25658e-08 5.94622e-07)
(0.625007 -7.53826e-09 -6.89246e-07)
(0.625004 -1.35255e-09 3.07264e-07)
(0.625004 2.26362e-08 -3.56509e-07)
(0.625001 -1.71671e-09 1.0633e-07)
(0.625 4.80696e-08 -9.7107e-08)
(0.624996 4.23642e-08 2.22011e-09)
(0.624992 1.16925e-07 -1.31007e-09)
(0.624983 1.90291e-07 9.03769e-10)
(0.62497 3.6995e-07 -4.09857e-09)
(0.624956 6.74043e-07 -1.75241e-08)
(0.624986 -8.97035e-07 -8.55316e-11)
(0.62499 -5.97928e-07 -1.32253e-10)
(0.625005 2.03177e-06 1.11903e-07)
(0.624993 -4.2154e-07 -5.06027e-09)
(0.625007 1.64574e-06 3.35276e-08)
(0.625002 -2.40131e-07 -1.37316e-08)
(0.624996 -2.71226e-07 -1.18886e-08)
(0.625008 1.49007e-06 6.59758e-07)
(0.625004 -4.77827e-07 -3.98243e-07)