/*--------------------------------*- C++ -*----------------------------------*\
  =========                 |
  \\      /  F ield         | OpenFOAM: The Open Source CFD Toolbox
   \\    /   O peration     | Website:  https://openfoam.org
    \\  /    A nd           | Version:  7
     \\/     M anipulation  |
\*---------------------------------------------------------------------------*/
FoamFile
{
    version     2.0;
    format      ascii;
    class       volScalarField;
    location    "200";
    object      p;
}
// * * * * * * * * * * * * * * * * * * * * * * * * * * * * * * * * * * * * * //

dimensions      [0 2 -2 0 0 0 0];

internalField   nonuniform List<scalar> 
43144
(
20.1105
20.1105
20.1106
15.482
20.1104
20.1105
15.4816
20.1107
15.482
11.1606
20.1102
20.1105
15.4811
20.1107
15.4816
11.1596
20.111
15.482
11.1622
7.96405
20.11
20.1103
15.4803
20.1106
15.4811
11.158
20.111
15.4817
11.1611
7.9597
20.1115
15.4823
11.1649
7.96115
0.28404
20.1097
20.1101
15.4793
20.1105
15.4803
11.1562
20.1109
15.4812
11.1596
7.95599
20.1115
15.4819
11.164
7.95699
0.118651
20.1124
15.4828
11.1701
7.95867
0.517489
0.0231421
0.513075
20.1092
20.1097
15.478
20.1102
15.4793
11.1543
20.1108
15.4804
11.1578
7.95063
20.1114
15.4814
11.1625
7.95326
0.0306698
20.1124
15.4825
11.1693
7.95466
0.369237
-0.124424
0.416068
20.1137
15.484
11.179
7.9573
0.785095
0.61774
-0.00293823
0.414204
0.134761
20.1086
20.1093
15.4766
20.1099
15.478
11.1522
20.1105
15.4793
11.1559
7.94499
20.1113
15.4806
11.1607
7.94789
-0.0175249
20.1123
15.482
11.1679
7.95091
0.289176
-0.215043
0.363945
20.1137
15.4836
11.1783
7.95333
0.659973
0.527633
-0.0968292
0.339921
0.0715958
20.1158
15.4861
11.1929
7.95828
1.10034
0.746527
0.187963
0.0126824
0.338857
0.0873071
0.101487
20.1079
20.1087
15.475
20.1094
15.4766
11.1501
20.1102
15.4781
11.1538
7.93906
20.111
15.4796
11.1588
7.94224
-0.0472956
20.1122
15.4811
11.1662
7.94553
0.242129
-0.262668
0.335921
20.1137
15.4831
11.177
7.94953
0.588156
0.479575
-0.159486
0.288144
0.0344021
20.1158
15.4857
11.1925
7.95428
0.999056
0.66889
0.128325
-0.0474273
0.308524
0.0383564
0.0665148
20.1188
15.4896
11.2137
7.96382
1.47425
0.898571
0.255672
0.129327
0.0160524
0.263591
0.058027
0.0758582
0.0353246
20.1071
20.108
15.4733
20.1088
15.475
11.148
20.1097
15.4766
11.1517
7.93329
20.1107
15.4783
11.1568
7.9363
-0.0667792
20.1119
15.4801
11.1642
7.93986
0.212814
-0.292028
0.316163
20.1135
15.4823
11.1753
7.94414
0.54284
0.451539
-0.202304
0.260768
0.0139428
20.1157
15.4851
11.1912
7.95041
0.935987
0.625132
0.0937697
-0.0822952
0.281254
0.00165875
0.046774
20.1188
15.4892
11.2135
7.95977
1.3966
0.834153
0.203513
0.0959022
-0.0301734
0.256921
0.0334058
0.0493628
0.0177876
20.1229
15.4954
11.2433
7.97719
1.90661
1.0815
0.337849
0.164696
0.0490679
0.220713
0.0164516
0.0320778
0.0576248
0.0226385
0.0220461
20.1062
20.1072
15.4716
20.1081
15.4733
11.1459
20.1091
15.4751
11.1496
7.92786
20.1102
15.4769
11.1547
7.93053
-0.0798543
20.1116
15.4789
11.1622
7.93391
0.193546
-0.311196
0.300892
20.1133
15.4812
11.1734
7.93845
0.514237
0.431739
-0.230968
0.241236
0.000486975
20.1156
15.4843
11.1897
7.94502
0.893251
0.597299
0.0733573
-0.114884
0.257882
-0.018356
0.036072
20.1187
15.4887
11.2125
7.95585
1.34301
0.794911
0.171849
0.0775011
-0.0539099
0.252272
0.0113605
0.0301548
0.00789364
20.1229
15.495
11.2433
7.97314
1.85088
1.03039
0.293895
0.135237
0.0321397
0.215674
-0.0191502
0.0211064
0.0440784
0.00962789
0.0140248
20.1284
15.504
11.2832
8.00249
2.39071
1.29988
0.440046
0.207579
0.0665735
0.0282416
0.0187104
0.198104
0.0102053
0.0421912
0.0132711
0.016284
0.00868661
20.1052
20.1063
15.4699
20.1073
15.4716
11.1439
20.1084
15.4734
11.1475
7.92294
20.1097
15.4753
11.1526
7.9251
-0.0889018
20.1111
15.4774
11.1601
7.92813
0.180603
-0.324039
0.28888
20.113
15.48
11.1714
7.9325
0.495291
0.416474
-0.250208
0.22605
-0.00895957
20.1154
15.4833
11.1879
7.93932
0.865714
0.577554
0.0597979
-0.138858
0.238725
-0.0316091
0.0293431
20.1186
15.4879
11.211
7.95049
1.30392
0.767722
0.15162
0.0667686
-0.0817304
0.237405
-0.00590363
0.019755
0.00255534
20.1229
15.4944
11.2424
7.9692
1.80719
0.996053
0.265292
0.118308
0.0229021
0.215343
-0.0400252
0.0114984
0.0329074
8.2124e-05
0.00956186
20.1284
15.5036
11.2834
7.9985
2.35361
1.2613
0.40463
0.182533
0.0515628
0.0204509
0.011356
0.191437
-0.0132498
0.0365375
0.00664049
0.0104085
0.00538951
20.1352
15.5162
11.3344
8.04405
2.91362
1.55612
0.566618
0.260989
0.0878123
0.036128
0.011236
0.034444
0.0135126
0.166151
-0.00190072
0.00533108
0.0118704
0.00631434
0.00550247
20.1042
20.1053
15.4682
20.1064
15.4698
11.1419
20.1076
15.4716
11.1455
7.91858
20.109
15.4736
11.1505
7.92018
-0.095291
20.1105
15.4759
11.158
7.9227
0.171639
-0.332902
0.279476
20.1125
15.4786
11.1694
7.92672
0.482528
0.404495
-0.263275
0.214084
-0.0157149
20.115
15.4821
11.1859
7.93337
0.847249
0.562338
0.0502436
-0.156016
0.223308
-0.0409334
0.0246188
20.1184
15.4869
11.2093
7.9448
1.27795
0.748196
0.138002
0.0599334
-0.101159
0.221785
-0.0188183
0.0131283
-0.000644583
20.1227
15.4937
11.2411
7.96391
1.77279
0.970098
0.24553
0.107594
0.0175485
0.203726
-0.0654347
-0.000979532
0.0241129
-0.005081
0.00715119
20.1283
15.5031
11.2827
7.99461
2.31972
1.23214
0.37942
0.167133
0.0430561
0.0162793
0.00475337
0.189634
-0.0300004
0.0318899
0.00105357
0.00612969
0.00357115
20.1352
15.5158
11.3347
8.04027
2.89093
1.52842
0.539557
0.240585
0.0749632
0.0291931
0.00802232
0.0316246
0.00798413
0.161633
-0.0132968
0.00271405
0.00888797
0.00391865
0.00424838
15.5322
11.3969
8.10548
3.45682
1.85042
0.720963
0.327412
0.114329
0.0456857
0.0144834
0.00646646
0.00135722
0.0307573
0.00745915
0.116442
-0.0117324
0.00816708
0.00447743
0.00460344
0.00305698
20.1032
20.1043
15.4665
20.1055
15.4681
11.1401
20.1067
15.4699
11.1436
7.91481
20.1081
15.4719
11.1484
7.91582
-0.0998874
20.1098
15.4742
11.1559
7.91778
0.165305
-0.33914
0.272257
20.1119
15.477
11.1673
7.92129
0.473673
0.395117
-0.272383
0.204722
-0.020529
20.1146
15.4806
11.1839
7.9276
0.834739
0.55042
0.0434012
-0.168063
0.211095
-0.0475942
0.0211295
20.118
15.4857
11.2074
7.93887
1.26021
0.733094
0.128343
0.0551095
-0.115497
0.207739
-0.0282742
0.00845722
-0.00268303
20.1225
15.4927
11.2395
7.95826
1.74895
0.951028
0.231958
0.100648
0.0142923
0.191517
-0.0827038
-0.0119628
0.017616
-0.0082251
0.00573676
20.1282
15.5023
11.2816
7.98947
2.29081
1.20807
0.360525
0.156571
0.0377097
0.0138599
-0.00617131
0.178992
-0.0508697
0.0257868
-0.00325382
0.00380884
0.00259169
20.1352
15.5153
11.3342
8.03653
2.86609
1.50446
0.51801
0.226881
0.0672028
0.025348
0.00632206
0.028901
0.00154586
0.161023
-0.0230483
0.000116318
0.00639427
0.00217918
0.00355353
15.5318
11.3972
8.10203
3.44421
1.83138
0.701398
0.311624
0.103778
0.0397226
0.0116168
0.00524206
0.000362643
0.02917
0.00494781
0.116281
-0.0142026
0.00704457
0.00326578
0.00369498
0.00259809
15.5516
11.4688
8.18829
3.99873
2.17964
0.905259
0.408977
0.147441
0.0576133
0.0184184
0.0076938
0.00340666
0.0063367
-0.000344007
0.0260708
-0.000488113
0.0596034
-0.0142154
0.00292665
0.00390194
0.00273151
0.00346678
20.1022
20.1033
15.465
20.1045
15.4665
11.1385
20.1058
15.4682
11.1417
7.9116
20.1072
15.4702
11.1465
7.91205
-0.103214
20.109
15.4725
11.1539
7.91343
0.160742
-0.343609
0.266805
20.1112
15.4753
11.1652
7.91637
0.467405
0.38791
-0.278857
0.197545
-0.0238961
20.114
15.4791
11.1818
7.92217
0.826025
0.541088
0.0385121
-0.176647
0.201543
-0.0523268
0.0184794
20.1176
15.4842
11.2054
7.93311
1.24808
0.721269
0.121406
0.0515453
-0.125852
0.196155
-0.0350951
0.00500617
-0.00396871
20.1222
15.4914
11.2377
7.95239
1.73227
0.936147
0.222225
0.0957062
0.0121948
0.179511
-0.0955516
-0.0206946
0.0127752
-0.0102374
0.00485689
20.128
15.5014
11.2801
7.98394
2.26967
1.18977
0.34716
0.149555
0.0343898
0.0124192
-0.0155801
0.168363
-0.0660327
0.0203537
-0.0062942
0.00242181
0.0020137
20.1351
15.5146
11.3333
8.03163
2.84303
1.4829
0.500443
0.216673
0.0619252
0.0229298
0.00533835
0.0238279
-0.00877058
0.152804
-0.0361576
-0.00290743
0.00448169
0.00123778
0.00317219
15.5313
11.3968
8.09855
3.42707
1.8124
0.683627
0.299766
0.0968424
0.0362062
0.010049
0.00459184
-0.00120344
0.026757
0.000528733
0.119586
-0.0174355
0.00586876
0.00224952
0.00303175
0.00233847
15.5513
11.4691
8.18529
3.99248
2.167
0.891845
0.397394
0.139213
0.0526889
0.0159477
0.00660029
0.00295842
0.00597887
-0.000656098
0.0258884
0.000461248
0.0617951
-0.0135618
0.00247911
0.00344332
0.00239909
0.00329706
15.5737
11.5469
8.29081
4.5182
2.53656
1.11953
0.507382
0.188326
0.0725103
0.0233297
0.00918053
0.00385202
0.00359186
0.00214725
0.00552014
-0.00214653
0.0194056
-0.00654478
0.015719
-0.0114174
0.00331518
0.00247907
0.00335048
0.00461111
20.1012
20.1023
15.4636
20.1034
15.465
11.137
20.1047
15.4666
11.1401
7.9089
20.1063
15.4685
11.1447
7.90884
-0.105615
20.1081
15.4707
11.152
7.90966
0.157432
-0.346825
0.26276
20.1104
15.4736
11.1632
7.91202
0.462882
0.382459
-0.283536
0.192137
-0.0262037
20.1133
15.4774
11.1797
7.91726
0.819838
0.533906
0.0350795
-0.182849
0.194222
-0.0556238
0.0164713
20.117
15.4827
11.2033
7.9277
1.23957
0.712
0.116431
0.0488363
-0.133475
0.186939
-0.0399551
0.00239136
-0.00473087
20.1217
15.49
11.2357
7.94667
1.72067
0.924466
0.215198
0.0920498
0.0108586
0.169136
-0.104989
-0.0272071
0.00914101
-0.0115051
0.00431934
20.1277
15.5002
11.2784
7.97818
2.25437
1.17527
0.337412
0.144501
0.0322175
0.0115112
-0.0232575
0.157497
-0.0776044
0.0158513
-0.00838205
0.00155371
0.0016455
20.1348
15.5136
11.3319
8.02631
2.82501
1.46574
0.487505
0.209654
0.0585578
0.0214575
0.00474988
0.019231
-0.0173536
0.143563
-0.0475054
-0.00543454
0.00315569
0.000670959
0.00294286
15.5306
11.396
8.09401
3.40965
1.79382
0.667842
0.29015
0.0917296
0.033815
0.00906486
0.0042091
-0.00368235
0.0220732
-0.00776858
0.116114
-0.0225466
0.00454439
0.00147528
0.00266586
0.00219063
15.5509
11.4688
8.18217
3.98133
2.15251
0.877757
0.387461
0.13318
0.0495338
0.0145121
0.00600036
0.00271532
0.00531556
-0.00189534
0.0244614
-2.72551e-05
0.0661668
-0.0139336
0.00198878
0.00305554
0.00215167
0.00319395
15.5734
11.5471
8.28831
4.51555
2.52834
1.11075
0.499296
0.182247
0.0686449
0.0212837
0.00823657
0.00345145
0.00342611
0.00201032
0.00546169
-0.00189534
0.0206258
-0.0036686
0.0180576
-0.0107952
0.00314819
0.00231145
0.00322699
0.00453993
11.6269
8.40789
4.99763
2.90981
1.36082
0.623412
0.237996
0.0909198
0.0294669
0.0110358
0.00439146
0.00375104
0.00465843
0.00302334
0.00180715
0.00462227
-0.00435728
0.0124756
-0.00717323
-0.00195082
-0.00561725
0.00226803
0.00326184
0.00456758
0.00668802
20.1003
20.1013
15.4624
20.1024
15.4636
11.1356
20.1037
15.4651
11.1386
7.90666
20.1053
15.4668
11.143
7.90614
-0.107323
20.1072
15.469
11.1502
7.90645
0.155037
-0.349127
0.259804
20.1095
15.4719
11.1612
7.90825
0.459593
0.378407
-0.286935
0.188133
-0.0277387
20.1125
15.4757
11.1777
7.91291
0.815359
0.528464
0.0327148
-0.187392
0.188703
-0.0578716
0.0149663
20.1163
15.481
11.2013
7.9228
1.2335
0.704853
0.11292
0.0467807
-0.139125
0.179823
-0.0433512
0.000415804
-0.00510142
20.1212
15.4885
11.2337
7.9413
1.71245
0.91529
0.210131
0.0892677
0.0100522
0.160612
-0.112094
-0.0319171
0.00638556
-0.0122499
0.0040174
20.1272
15.4988
11.2765
7.97255
2.24349
1.16381
0.330311
0.140747
0.0308154
0.0109494
-0.0290857
0.147826
-0.0863117
0.0123028
-0.00975119
0.00102291
0.00140893
20.1345
15.5125
11.3303
8.02074
2.81141
1.45183
0.477844
0.204506
0.0563104
0.0205126
0.004371
0.0152406
-0.0243511
0.133605
-0.0570045
-0.0073627
0.00225937
0.000307422
0.00279344
15.5297
11.3948
8.08901
3.39497
1.77818
0.655606
0.283231
0.0883448
0.0323171
0.00846348
0.003976
-0.00586181
0.0178649
-0.0152673
0.10935
-0.0281477
0.00346234
0.000936009
0.00244136
0.00209824
15.5502
11.4681
8.17809
3.96886
2.13712
0.864115
0.378682
0.128348
0.0472113
0.0135377
0.00561783
0.00256737
0.00427713
-0.00412978
0.0208078
-0.00425546
0.0668366
-0.0149523
0.00145023
0.00275575
0.00201011
0.00312804
15.573
11.5469
8.28562
4.50867
2.51764
1.10003
0.491269
0.177166
0.0658868
0.0199929
0.00768661
0.00322717
0.00332935
0.0017368
0.00498847
-0.00262835
0.0208999
-0.00133181
0.0206716
-0.0107332
0.00296013
0.00216598
0.00312918
0.00448989
11.6271
8.4059
4.99677
2.90451
1.35526
0.617993
0.233732
0.088044
0.0278561
0.0102524
0.00404539
0.00360275
0.00458918
0.00297489
0.00178641
0.00479446
-0.00365533
0.0142678
-0.00466617
-0.000401942
-0.00532133
0.00220708
0.00319947
0.00451435
0.00665374
8.53171
5.4247
3.28485
1.62268
0.756412
0.297053
0.113322
0.0370571
0.013354
0.00506462
0.00394381
0.00471867
0.00670475
0.00216209
0.00289391
0.00145672
0.00344159
-0.00607726
0.00758212
-0.00410024
-0.00240988
0.000946169
0.00319096
0.00453684
0.00667293
0.00859531
20.0995
20.1004
15.4613
20.1015
15.4623
11.1345
20.1027
15.4637
11.1373
7.90482
20.1043
15.4653
11.1415
7.9039
-0.108512
20.1061
15.4674
11.1485
7.90375
0.153324
-0.350748
0.257675
20.1085
15.4702
11.1594
7.90504
0.457202
0.375438
-0.289393
0.185213
-0.0287193
20.1116
15.474
11.1758
7.90914
0.81209
0.524409
0.0311309
-0.190729
0.184611
-0.0593559
0.0138706
20.1155
15.4793
11.1993
7.91846
1.22908
0.699423
0.110487
0.0452364
-0.143347
0.174437
-0.0456772
-0.00105943
-0.00518419
20.1205
15.4869
11.2317
7.93643
1.70654
0.908194
0.206532
0.0871524
0.0096426
0.153908
-0.117461
-0.0352352
0.00430768
-0.0126033
0.00389084
20.1266
15.4973
11.2745
7.96726
2.23566
1.15478
0.32515
0.137884
0.0299509
0.010626
-0.0333876
0.139702
-0.0929982
0.00955584
-0.0105836
0.000727118
0.00126193
20.1341
15.5111
11.3285
8.01528
2.80142
1.44072
0.470707
0.200653
0.0548363
0.0199182
0.00412558
0.0120141
-0.0297076
0.124459
-0.0646029
-0.00870534
0.0016823
7.38308e-05
0.0026938
15.5286
11.3933
8.08375
3.38327
1.76513
0.646178
0.278029
0.086027
0.0313342
0.00807018
0.00382257
-0.00760615
0.0141793
-0.0216081
0.100833
-0.0339217
0.00264553
0.000565564
0.0022942
0.00203701
15.5494
11.4671
8.17352
3.9574
2.12334
0.852873
0.372
0.124993
0.0456997
0.0129256
0.00538008
0.00247395
0.00336393
-0.00614477
0.0171463
-0.00953686
0.0640266
-0.0161991
0.00101212
0.00254435
0.00192006
0.00308203
15.5724
11.5464
8.28207
4.50012
2.50538
1.08871
0.483534
0.172738
0.0636843
0.0190448
0.00730808
0.00307991
0.00326391
0.0013213
0.00408956
-0.00438118
0.0191608
-0.00123157
0.0220557
-0.0110141
0.00275214
0.00205083
0.00306629
0.00445355
11.6269
8.40365
4.99268
2.89681
1.34739
0.611739
0.229602
0.0857064
0.0267247
0.00975714
0.00383981
0.00351344
0.00454222
0.00287095
0.00159751
0.00455399
-0.00370563
0.0157369
-0.00211243
0.000825951
-0.00525027
0.00213543
0.00314117
0.00446689
0.00662385
8.53017
5.42462
3.28142
1.61922
0.752873
0.294191
0.111289
0.0358555
0.0127356
0.00477711
0.00381544
0.00465672
0.00667189
0.00214392
0.0028888
0.00152302
0.00377866
-0.00524733
0.00896205
-0.00276761
-0.00165899
0.00106612
0.00316812
0.00450796
0.00664503
0.00857659
5.79279
3.64591
1.89547
0.903856
0.365404
0.140027
0.0463045
0.0162213
0.00590575
0.00418437
0.0047917
0.00672606
0.0085984
0.00315693
0.00211609
0.00275697
0.00101734
0.00224716
-0.005849
0.00513248
-0.000854617
0.00218048
0.00672746
0.00451544
0.00666508
0.00859294
0.009902
20.0988
20.0996
15.4603
20.1006
15.4612
11.1335
20.1018
15.4624
11.1361
7.90331
20.1032
15.4639
11.1402
7.90206
-0.109314
20.1051
15.4659
11.147
7.90151
0.152125
-0.351859
0.256166
20.1075
15.4685
11.1578
7.90234
0.455484
0.373295
-0.291145
0.183118
-0.0293059
20.1106
15.4723
11.174
7.90593
0.809702
0.521429
0.0301086
-0.193166
0.181621
-0.0602941
0.0131036
20.1146
15.4776
11.1973
7.9147
1.22584
0.695364
0.108843
0.0441076
-0.146492
0.170434
-0.0472243
-0.0021286
-0.00503969
20.1196
15.4852
11.2297
7.93211
1.70221
0.902783
0.204018
0.0855587
0.00952524
0.148773
-0.121529
-0.0375231
0.00275877
-0.0126692
0.00389501
20.1259
15.4957
11.2725
7.96244
2.22995
1.14776
0.321453
0.1357
0.0294897
0.0104801
-0.03647
0.133223
-0.0981346
0.00746642
-0.0110065
0.00060654
0.00118435
20.1335
15.5097
11.3266
8.01011
2.79407
1.43189
0.46546
0.1977
0.0539057
0.0195658
0.00397104
0.00945608
-0.033723
0.116639
-0.0706506
-0.0095534
0.00134297
-7.03932e-05
0.00262687
15.5273
11.3916
8.07853
3.37434
1.75451
0.639072
0.274085
0.0844751
0.0307037
0.00781258
0.00371956
-0.00884321
0.0111676
-0.0265771
0.0924736
-0.0393804
0.00208087
0.000317993
0.00219601
0.00199759
15.5483
11.4657
8.16865
3.94768
2.1114
0.843865
0.36681
0.12262
0.0446798
0.0125174
0.00522125
0.0024115
0.00262701
-0.00778433
0.0137688
-0.0147264
0.0586431
-0.0179212
0.000679382
0.00239645
0.00186009
0.00304938
15.5716
11.5454
8.27801
4.49151
2.49367
1.07873
0.477245
0.169476
0.0621785
0.0184268
0.00706649
0.00298533
0.00321797
0.000956366
0.00326015
-0.00613346
0.0166185
-0.00298275
0.0220245
-0.0112525
0.00258199
0.00196774
0.00302172
0.00442845
11.6264
8.40064
4.98699
2.88738
1.33837
0.605172
0.225683
0.0836781
0.0258237
0.00938888
0.00369467
0.00344903
0.00450671
0.00271227
0.00124627
0.00387158
-0.00466591
0.0159724
-0.000111182
0.00149679
-0.00539106
0.00205561
0.00309067
0.00443222
0.00660125
8.52834
5.42221
3.27598
1.61361
0.748155
0.290957
0.109375
0.0348936
0.0123005
0.00459197
0.00373356
0.00461358
0.006644
0.00210333
0.00281821
0.00142658
0.00381811
-0.00481658
0.0104759
-0.00124385
-0.00101187
0.00110132
0.00313857
0.0044776
0.00661636
0.00855634
5.79297
3.64367
1.89331
0.90156
0.363542
0.138649
0.045453
0.0157584
0.00567851
0.00407741
0.00473804
0.00669682
0.0085811
0.00314977
0.00211334
0.00278405
0.00114394
0.00259695
-0.00522217
0.0058735
-0.00028593
0.00246076
0.00676736
0.00450121
0.00664595
0.00857495
0.00989149
3.97849
2.16732
1.06117
0.442003
0.171044
0.0573454
0.0197155
0.00694612
0.00448495
0.004883
0.00675212
0.00860242
0.00989883
0.00450647
0.0031422
0.00206964
0.00258009
0.000596937
0.00140496
-0.0028685
0.00417648
0.00273814
0.00720854
0.0145123
0.00666522
0.00859563
0.00990533
0.0104668
20.0981
20.0989
15.4595
20.0997
15.4603
11.1327
20.1009
15.4613
11.1351
7.9021
20.1023
15.4627
11.1391
7.90056
-0.109832
20.1041
15.4645
11.1457
7.89966
0.151309
-0.352592
0.255116
20.1065
15.467
11.1563
7.9001
0.454273
0.371771
-0.292367
0.181638
-0.0296175
20.1096
15.4707
11.1723
7.90323
0.807974
0.519271
0.0294871
-0.194919
0.179468
-0.0608451
0.0125975
20.1136
15.4759
11.1955
7.91149
1.22346
0.692372
0.107769
0.0433127
-0.148813
0.167505
-0.0482131
-0.00287241
-0.00474758
20.1188
15.4835
11.2277
7.92836
1.699
0.898723
0.202303
0.0843883
0.00963836
0.14493
-0.12459
-0.0390544
0.00163575
-0.0125087
0.00397007
20.1251
15.494
11.2705
7.95816
2.22573
1.14238
0.318846
0.134049
0.0293266
0.0104667
-0.0386257
0.128214
-0.102076
0.00590203
-0.0111252
0.000616555
0.00116264
20.1328
15.5081
11.3246
8.00539
2.78862
1.42499
0.461662
0.195438
0.0533846
0.0193937
0.00388685
0.00747445
-0.036644
0.110328
-0.0754195
-0.010001
0.00118538
-0.000145295
0.002584
15.5259
11.3898
8.07356
3.36755
1.74598
0.633767
0.271039
0.083469
0.0303181
0.00764768
0.00364975
-0.00963178
0.0087446
-0.0303675
0.0851056
-0.0442235
0.00172979
0.000160562
0.0021304
0.00197497
15.5471
11.4641
8.16377
3.93988
2.10146
0.83689
0.3628
0.120989
0.0440095
0.0122462
0.00511359
0.00237098
0.00209967
-0.00895372
0.0109148
-0.0191163
0.052333
-0.0201592
0.000442327
0.00229427
0.0018215
0.00302853
15.5706
11.5442
8.27363
4.48367
2.48308
1.07034
0.472162
0.167076
0.0611266
0.018004
0.00690203
0.00292129
0.00318522
0.000658562
0.00256775
-0.00763407
0.0138215
-0.00585146
0.0204329
-0.0114747
0.00245082
0.00190924
0.00298994
0.00441589
11.6255
8.39714
4.98068
2.87776
1.32981
0.599431
0.222593
0.0822053
0.0252073
0.0091452
0.00359928
0.00340335
0.00448216
0.00257183
0.000920366
0.00316235
-0.00590358
0.0151544
0.00092927
0.00185714
-0.00555547
0.00198955
0.00305103
0.00440805
0.00659106
8.52585
5.41845
3.26891
1.60667
0.742776
0.287615
0.107569
0.0340618
0.0119504
0.0044513
0.00367076
0.00457944
0.00662251
0.0020423
0.00268529
0.00116409
0.00345888
-0.00497339
0.0116401
0.000315958
-0.000637256
0.00103623
0.0031035
0.00444991
0.00659469
0.00854348
5.79151
3.63986
1.88939
0.898085
0.361093
0.137138
0.0446629
0.0153875
0.00551588
0.00400366
0.00469877
0.0066716
0.00856253
0.00313221
0.00208507
0.00274905
0.00115252
0.00281077
-0.00470509
0.00684964
0.000411086
0.0027577
0.00677588
0.00448271
0.00662479
0.00855496
0.00987748
3.977
2.16595
1.05966
0.440805
0.170138
0.056768
0.019386
0.00677579
0.00440005
0.00483822
0.00672691
0.00858735
0.0098897
0.00449694
0.00314053
0.00207847
0.00262846
0.000723139
0.00165136
-0.00250838
0.00450696
0.0029686
0.00729641
0.014523
0.00664923
0.00857838
0.0098928
0.0104596
2.4259
1.22198
0.524695
0.205963
0.0701948
0.0238894
0.00821395
0.00485673
0.00499727
0.00678505
0.00860775
0.00989491
0.0104627
0.00666852
0.00450316
0.00312692
0.00201178
0.00239748
0.000358863
0.00128844
0.000981241
0.00477803
0.00723534
0.0147287
0.0240878
0.00860629
0.00991234
0.0104709
0.0105982
20.0976
20.0982
15.4588
20.099
15.4595
11.132
20.1
15.4604
11.1343
7.90114
20.1014
15.4616
11.1381
7.89935
-0.110147
20.1032
15.4632
11.1445
7.89816
0.150776
-0.35305
0.2544
20.1055
15.4656
11.1549
7.89825
0.453441
0.370707
-0.293193
0.180614
-0.0297425
20.1086
15.4691
11.1708
7.90098
0.806745
0.517731
0.0291462
-0.196153
0.177941
-0.0611273
0.0122925
20.1126
15.4743
11.1939
7.90879
1.22172
0.690197
0.107104
0.0427833
-0.150494
0.165395
-0.0488049
-0.00335853
-0.00437144
20.1178
15.4818
11.2259
7.92516
1.69663
0.895717
0.201168
0.0835582
0.00990275
0.142105
-0.126866
-0.0400396
0.000851992
-0.0122019
0.00409488
20.1242
15.4923
11.2686
7.95444
2.22257
1.13832
0.317047
0.132829
0.0293982
0.0105269
-0.0400848
0.12444
-0.10507
0.00476457
-0.0110052
0.000697189
0.00118918
20.132
15.5064
11.3226
8.00119
2.78453
1.41966
0.458951
0.193719
0.0531676
0.0193563
0.00385923
0.00596954
-0.0387138
0.105411
-0.0791476
-0.010144
0.00116495
-0.000164359
0.00255962
15.5243
11.3878
8.06899
3.36239
1.73924
0.629871
0.268691
0.0828774
0.0301155
0.00755448
0.00360439
-0.0100462
0.0068416
-0.0331674
0.0790505
-0.0483088
0.00155377
7.44783e-05
0.00208879
0.00196673
15.5457
11.4623
8.15907
3.93372
2.09334
0.831574
0.359668
0.119899
0.0435856
0.0120694
0.00503982
0.00234734
0.00176378
-0.00970025
0.00857354
-0.0225986
0.0462317
-0.0227299
0.0002849
0.00222472
0.00179956
0.0030188
15.5694
11.5427
8.26916
4.47701
2.47399
1.06363
0.468132
0.165373
0.0604146
0.0177178
0.00678915
0.00287929
0.00316418
0.000437673
0.00206284
-0.00874316
0.0112105
-0.00893685
0.0176646
-0.0118348
0.00235468
0.00187044
0.00296961
0.00441851
11.6244
8.39327
4.9745
2.86866
1.32224
0.594567
0.220209
0.0811327
0.0247719
0.00897522
0.00353361
0.00337052
0.00446989
0.00245555
0.000643058
0.00253324
-0.00711316
0.0135428
0.000814636
0.00186365
-0.00564081
0.001939
0.00302156
0.00439599
0.00659935
8.52287
5.41387
3.26125
1.59957
0.737701
0.284772
0.106162
0.033458
0.0117075
0.00435582
0.00362552
0.00455577
0.00661312
0.001988
0.00256077
0.000890227
0.0029614
-0.00547373
0.012277
0.00174381
-0.000378409
0.000929156
0.00307259
0.00442939
0.00658501
0.00854771
5.78898
3.63464
1.88416
0.893807
0.358343
0.135585
0.0439201
0.0150637
0.00538259
0.00394339
0.00466632
0.00665179
0.00855098
0.00310521
0.00203384
0.00265014
0.00101686
0.00275586
-0.00440783
0.00786979
0.00117685
0.00297585
0.00674522
0.00446255
0.00660741
0.00854246
0.0098712
3.97432
2.16321
1.05713
0.438998
0.168981
0.0561417
0.0190802
0.00663714
0.00433525
0.0048032
0.00670449
0.0085711
0.00987712
0.00448291
0.00312773
0.00206329
0.00263321
0.000795122
0.00186665
-0.0021218
0.00499175
0.00325003
0.00740489
0.0145191
0.00663208
0.00856065
0.00987845
0.0104486
2.42501
1.22096
0.523917
0.205371
0.0698147
0.0236646
0.00809255
0.00479272
0.00496165
0.00676414
0.00859506
0.00988726
0.0104567
0.00665147
0.00449499
0.00312922
0.00202843
0.00244339
0.000436843
0.00143792
0.00115661
0.00492382
0.00732862
0.0147535
0.0240877
0.00858548
0.00989642
0.0104613
0.0105912
1.37888
0.610266
0.243869
0.0846947
0.0287504
0.00972833
0.00530976
0.00513877
0.00682672
0.00861509
0.00989073
0.0104575
0.0105959
0.00861588
0.00667065
0.00450034
0.00310721
0.00195266
0.00224525
0.000385875
0.00214452
0.00360058
0.00755819
0.0147707
0.0242277
0.0311839
0.00992719
0.0104778
0.0106006
0.0105855
20.0971
20.0977
15.4582
20.0984
15.4588
11.1315
20.0993
15.4595
11.1337
7.90037
20.1006
15.4606
11.1373
7.89838
-0.110324
20.1023
15.4621
11.1435
7.89695
0.150445
-0.353314
0.253925
20.1045
15.4644
11.1538
7.89675
0.45289
0.369977
-0.293728
0.17992
-0.0297461
20.1076
15.4678
11.1695
7.89914
0.805891
0.516651
0.0289971
-0.196996
0.176878
-0.0612279
0.0121358
20.1116
15.4728
11.1924
7.90654
1.22047
0.688637
0.106726
0.0424589
-0.151683
0.163899
-0.0491199
-0.00364662
-0.00395933
20.1168
15.4802
11.2243
7.92246
1.69488
0.89352
0.20045
0.0829992
0.0102552
0.140064
-0.128525
-0.0406338
0.000335713
-0.0118127
0.00424919
20.1233
15.4906
11.2667
7.95126
2.22021
1.13531
0.315837
0.131957
0.0296259
0.0106391
-0.0410319
0.121651
-0.107309
0.00396832
-0.010731
0.000827418
0.00125488
20.1311
15.5047
11.3207
7.99751
2.78143
1.41562
0.457054
0.192441
0.0531899
0.0193964
0.00388035
0.00486481
-0.0401305
0.101684
-0.0820181
-0.0100464
0.00122254
-0.000135309
0.00255
15.5227
11.3859
8.06489
3.35844
1.73401
0.627051
0.266895
0.0825961
0.03005
0.00751881
0.00357784
-0.0101726
0.0053802
-0.0351777
0.0742763
-0.0516406
0.00151587
4.63735e-05
0.00206565
0.00197099
15.5442
11.4604
8.1547
3.92888
2.08685
0.8276
0.357231
0.119227
0.0433469
0.0119656
0.00499107
0.00233813
0.00159242
-0.0100902
0.00671003
-0.0252409
0.0409348
-0.0253562
0.00019511
0.00217985
0.00179187
0.00301989
15.5681
11.5409
8.26479
4.47149
2.4664
1.05837
0.464932
0.164196
0.0599475
0.0175272
0.00671081
0.00285425
0.0031542
0.000286598
0.00173747
-0.00946786
0.00895944
-0.011728
0.0142983
-0.0124254
0.00228684
0.00184779
0.00296021
0.00443865
11.623
8.38926
4.9689
2.86056
1.31592
0.590584
0.21845
0.0803804
0.0244701
0.00885659
0.00348994
0.00334926
0.00447257
0.00236689
0.000432093
0.00205386
-0.00809716
0.0115725
-0.00016386
0.00144755
-0.00564789
0.00190386
0.0030022
0.00439878
0.00663207
8.51953
5.40904
3.25364
1.59294
0.733173
0.282459
0.105087
0.0330144
0.0115327
0.00428865
0.00359266
0.00454396
0.0066218
0.00194381
0.00245317
0.00064249
0.0024558
-0.00614345
0.012205
0.00273906
-0.000166987
0.00084452
0.00304806
0.0044192
0.00659342
0.00857863
5.78563
3.62866
1.87845
0.889458
0.35581
0.134279
0.0433422
0.0148257
0.00528815
0.00389896
0.00464369
0.00664356
0.00855608
0.00307994
0.00198584
0.00254599
0.000831564
0.00253292
-0.00427194
0.00884107
0.00200411
0.0031377
0.00668626
0.00444691
0.00660022
0.00854678
0.00988404
3.97048
2.15934
1.0538
0.436801
0.167691
0.0555012
0.0187903
0.00651432
0.00427868
0.00477293
0.0066866
0.00856143
0.00987214
0.0044663
0.00310488
0.00202486
0.00258199
0.000779812
0.00195107
-0.00174483
0.0055698
0.00355709
0.00750447
0.0144994
0.00661823
0.00855051
0.00987214
0.0104436
2.42308
1.21911
0.522601
0.204507
0.0693341
0.0234209
0.00797825
0.00473743
0.00493129
0.00674478
0.00858131
0.00987672
0.0104468
0.00663511
0.00448256
0.00312151
0.00202781
0.00247139
0.000503427
0.00159552
0.00138281
0.00513784
0.00744478
0.0147883
0.0240787
0.00856697
0.00988139
0.0104498
0.0105801
1.37816
0.609746
0.243476
0.0844469
0.0286011
0.00964542
0.00526378
0.00511189
0.00681023
0.00860489
0.0098846
0.0104526
0.0105898
0.00859012
0.00665267
0.00449311
0.00311175
0.00196838
0.00227172
0.000424776
0.00222877
0.00368712
0.0076291
0.0148018
0.0242249
0.0311767
0.0099044
0.0104642
0.0105921
0.0105773
0.694791
0.283343
0.100478
0.0342411
0.0114919
0.00585083
0.00531136
0.00687886
0.00862514
0.00988633
0.0104519
0.0105931
0.0105854
0.00993944
0.00862095
0.00667304
0.0044972
0.00308271
0.0018935
0.00209364
0.000761912
0.00304634
0.00647236
0.0145106
0.0243505
0.0313249
0.035243
0.0104915
0.0106054
0.0105859
0.0105557
20.0967
20.0972
15.4578
20.0978
15.4582
11.131
20.0987
15.4588
11.1331
7.89977
20.0998
15.4598
11.1366
7.89762
-0.11041
20.1014
15.4612
11.1427
7.89598
0.150254
-0.353447
0.253617
20.1036
15.4633
11.1528
7.89554
0.452541
0.36949
-0.294056
0.179462
-0.0296767
20.1066
15.4665
11.1683
7.89763
0.805316
0.515906
0.0289738
-0.19755
0.176152
-0.0612116
0.0120826
20.1106
15.4714
11.191
7.9047
1.21959
0.687537
0.106547
0.0422863
-0.152498
0.162859
-0.0492469
-0.00378923
-0.00354768
20.1157
15.4787
11.2228
7.92022
1.69361
0.891937
0.200028
0.0826502
0.0106476
0.138616
-0.129703
-0.0409537
2.4547e-05
-0.0113893
0.00442345
20.1223
15.489
11.2651
7.94858
2.21845
1.13309
0.315055
0.131363
0.029947
0.0107829
-0.0416071
0.119628
-0.10895
0.00344173
-0.0103666
0.000986925
0.00135135
20.1301
15.5031
11.3189
7.99437
2.77907
1.4126
0.455757
0.191518
0.053374
0.0194916
0.00394112
0.0040865
-0.0410591
0.0989162
-0.0841871
-0.00979081
0.00133713
-6.72385e-05
0.00255267
15.5211
11.3839
8.0613
3.3554
1.73
0.625047
0.265549
0.0825589
0.0300662
0.00753256
0.00356633
-0.0100685
0.00429883
-0.0365703
0.0706238
-0.0542834
0.00156041
6.81053e-05
0.00205721
0.00198612
15.5426
11.4585
8.15076
3.92509
2.08174
0.824674
0.355351
0.11887
0.0432479
0.0119203
0.00496157
0.00234146
0.0015558
-0.0102037
0.00526617
-0.0271797
0.0366115
-0.0277999
0.000162277
0.00215423
0.00179661
0.00303103
15.5666
11.5391
8.26068
4.467
2.46023
1.05436
0.462411
0.163434
0.059667
0.0174107
0.00665805
0.0028437
0.00315496
0.000198371
0.00157071
-0.00985532
0.00711934
-0.0140235
0.0108779
-0.0132432
0.00224203
0.0018392
0.00296138
0.00447798
11.6213
8.38527
4.96402
2.85361
1.31082
0.58735
0.21719
0.0798672
0.0242637
0.00877291
0.00346327
0.00333893
0.00449254
0.00230256
0.000285186
0.00173538
-0.00878601
0.00960793
-0.00158972
0.000618906
-0.00562881
0.00188281
0.00299286
0.00441882
0.00669449
8.51598
5.40437
3.2466
1.58715
0.729316
0.280674
0.1043
0.0326973
0.011408
0.00424316
0.00357116
0.00454673
0.00665451
0.00191221
0.00236898
0.000445494
0.00203027
-0.00681997
0.0114774
0.00316883
-1.82539e-05
0.000823267
0.00303135
0.00442243
0.00662591
0.00864516
5.78184
3.62244
1.8728
0.885359
0.353625
0.133224
0.0428975
0.0146478
0.00521982
0.00386621
0.00463244
0.00665281