/*--------------------------------*- C++ -*----------------------------------*\
  =========                 |
  \\      /  F ield         | OpenFOAM: The Open Source CFD Toolbox
   \\    /   O peration     | Website:  https://openfoam.org
    \\  /    A nd           | Version:  7
     \\/     M anipulation  |
\*---------------------------------------------------------------------------*/
FoamFile
{
    version     2.0;
    format      ascii;
    class       surfaceScalarField;
    location    "200";
    object      phi;
}
// * * * * * * * * * * * * * * * * * * * * * * * * * * * * * * * * * * * * * //

dimensions      [0 3 -1 0 0 0 0];

internalField   nonuniform List<scalar> 
125162
(
5.1193e-15
-6.49349e-13
3.18649e-11
1.43969e-14
-7.25443e-13
3.5356e-11
6.29874e-15
-1.43164e-12
4.02396e-11
4.51838e-14
-5.71676e-13
3.23914e-11
2.53888e-14
-8.06645e-13
3.91671e-11
1.81795e-14
-1.59912e-12
4.46474e-11
7.83086e-14
-6.2514e-13
3.5948e-11
7.62565e-15
-2.37711e-12
5.05948e-11
5.76272e-14
-1.39849e-12
4.10088e-11
1.08998e-13
-7.89198e-12
4.01743e-11
3.66234e-14
-8.93885e-13
4.33117e-11
3.20395e-14
-1.77791e-12
4.94599e-11
1.03979e-13
-6.88241e-13
3.98297e-11
2.2743e-14
-2.65435e-12
5.61355e-11
9.89833e-14
-1.53193e-12
4.55128e-11
1.7417e-13
-8.93509e-12
4.48179e-11
8.90073e-15
-3.49844e-12
6.32414e-11
7.32305e-14
-2.53318e-12
5.16563e-11
1.36268e-13
-1.70794e-11
5.00599e-11
3.29306e-13
-1.24829e-12
4.10933e-11
4.77079e-14
-9.88354e-13
4.78e-11
4.62898e-14
-1.9703e-12
5.46934e-11
1.23919e-13
-7.62072e-13
4.40538e-11
4.02007e-14
-2.95067e-12
6.21859e-11
1.31609e-13
-1.68847e-12
5.04275e-11
1.96732e-13
-1e-11
4.98072e-11
2.81148e-14
-3.90421e-12
7.01641e-11
1.24704e-13
-2.77951e-12
5.73316e-11
2.18301e-13
-1.93141e-11
5.58098e-11
4.20147e-13
-1.89307e-12
4.66202e-11
9.81064e-15
-4.80139e-12
7.84721e-11
9.30209e-14
-4.08632e-12
6.47016e-11
1.65392e-13
-2.77068e-11
6.21184e-11
4.12257e-13
-4.57502e-12
5.29744e-11
9.3489e-12
-9.49248e-10
9.5989e-10
2.11025e-11
5.77734e-14
-1.08953e-12
5.26367e-11
6.03025e-14
-2.17855e-12
6.03612e-11
1.36901e-13
-8.42227e-13
4.86293e-11
5.8199e-14
-3.26998e-12
6.87658e-11
1.56662e-13
-1.86913e-12
5.57754e-11
2.00278e-13
-1.11316e-11
5.51819e-11
5.00381e-14
-4.33908e-12
7.77259e-11
1.65786e-13
-3.06636e-12
6.35227e-11
2.47537e-13
-2.16093e-11
6.20076e-11
4.32818e-13
-2.15236e-12
5.19469e-11
3.41841e-14
-5.35359e-12
8.70571e-11
1.5642e-13
-4.49283e-12
7.18141e-11
2.69126e-13
-3.12827e-11
6.91965e-11
5.24705e-13
-5.74571e-12
5.955e-11
6.35918e-12
-1.12631e-09
1.15163e-09
2.42857e-11
9.92289e-15
-6.28302e-12
9.65046e-11
1.1804e-13
-6.17635e-12
8.04441e-11
1.92441e-13
-3.95072e-11
7.63095e-11
5.0655e-13
-1.03088e-11
6.73456e-11
8.40468e-12
-9.32193e-10
2.75147e-11
5.26256e-11
8.46761e-10
6.05035e-11
1.09606e-11
-9.03318e-10
9.07926e-10
5.53357e-12
6.63351e-14
-1.19773e-12
5.78249e-11
7.30399e-14
-2.4017e-12
6.64688e-11
1.43907e-13
-9.31102e-13
5.35608e-11
7.58489e-14
-3.61555e-12
7.58916e-11
1.73097e-13
-2.06562e-12
6.15681e-11
1.94595e-13
-1.23363e-11
6.09713e-11
7.26836e-14
-4.80837e-12
8.59495e-11
1.97127e-13
-3.39414e-12
7.02594e-11
2.5251e-13
-2.40528e-11
6.86917e-11
4.30483e-13
-2.39876e-12
5.7583e-11
6.16255e-14
-5.94789e-12
9.64382e-11
2.07703e-13
-4.96136e-12
7.95696e-11
3.08223e-13
-3.4985e-11
7.68592e-11
5.4773e-13
-6.44058e-12
6.62728e-11
3.71486e-12
-1.27307e-09
1.30069e-09
2.69718e-11
4.0692e-14
-6.99773e-12
1.07055e-10
1.95108e-13
-6.80688e-12
8.92941e-11
3.24162e-13
-4.45084e-11
8.4908e-11
6.51587e-13
-1.20388e-11
7.53445e-11
6.52444e-12
-1.09583e-09
3.09504e-11
3.26492e-11
1.09535e-09
7.62623e-11
7.36575e-12
-1.08381e-09
1.10531e-09
6.37877e-12
8.86216e-15
-7.92748e-12
1.1738e-10
1.49242e-13
-8.9022e-12
9.90812e-11
2.09928e-13
-5.20489e-11
9.27759e-11
6.2159e-13
-1.90084e-11
8.43875e-11
7.87986e-12
-9.07621e-10
3.4893e-11
1.0179e-11
-8.93238e-10
7.25562e-12
1.21485e-10
6.38897e-10
8.63793e-11
5.65096e-11
8.92342e-10
1.95779e-11
1.15042e-11
-6.89437e-10
6.80802e-10
2.66391e-12
7.29182e-14
-1.31264e-12
6.33554e-11
8.38668e-14
-2.64037e-12
7.30204e-11
1.45277e-13
-1.02723e-12
5.88508e-11
9.19015e-14
-3.986e-12
8.35706e-11
1.81916e-13
-2.28255e-12
6.78115e-11
1.83681e-13
-1.36194e-11
6.71911e-11
9.48149e-14
-5.31622e-12
9.48555e-11
2.17808e-13
-3.75106e-12
7.75563e-11
2.45566e-13
-2.66554e-11
7.58941e-11
3.99699e-13
-2.63499e-12
6.3637e-11
8.99781e-14
-6.59031e-12
1.06641e-10
2.46593e-13
-5.49184e-12
8.80083e-11
3.15817e-13
-3.89361e-11
8.51352e-11
5.44168e-13
-7.16656e-12
7.3463e-11
2.17262e-12
-1.41404e-09
1.44339e-09
2.97738e-11
7.48852e-14
-7.77099e-12
1.1859e-10
2.58353e-13
-7.52454e-12
9.89382e-11
3.78073e-13
-4.97444e-11
9.42751e-11
6.89743e-13
-1.34044e-11
8.37849e-11
3.87362e-12
-1.23842e-09
3.42817e-11
1.90187e-11
1.22896e-09
8.53534e-11
4.5046e-12
-1.2255e-09
1.24839e-09
6.94679e-12
4.72714e-14
-8.8184e-12
1.30205e-10
2.41512e-13
-9.83489e-12
1.09991e-10
3.77965e-13
-5.84781e-11
1.03096e-10
8.0554e-13
-2.15342e-11
9.42194e-11
6.79214e-12
-1.05818e-09
3.87855e-11
7.76155e-12
-1.05852e-09
8.08247e-12
1.10154e-10
9.71046e-10
1.35634e-10
3.51751e-11
1.17792e-09
2.49922e-11
8.65537e-12
-8.50815e-10
8.56937e-10
3.1051e-12
6.63465e-15
-9.69795e-12
1.40872e-10
1.86851e-13
-1.23052e-11
1.20596e-10
2.08604e-13
-6.4778e-11
1.11602e-10
7.65118e-13
-3.11085e-11
1.04111e-10
7.64145e-12
-8.74592e-10
4.37178e-11
9.6105e-12
-8.77808e-10
9.85262e-12
1.10777e-11
-6.96614e-10
3.35471e-12
1.08702e-10
4.76696e-10
5.34984e-11
1.1517e-10
8.17406e-10
4.61455e-11
5.67277e-11
6.34705e-10
8.94792e-12
9.65224e-12
-4.89109e-10
4.81263e-10
8.57731e-13
7.72468e-14
-1.43394e-12
6.92096e-11
9.21916e-14
-2.89389e-12
8.00043e-11
1.42009e-13
-1.13058e-12
6.44893e-11
1.05538e-13
-4.38228e-12
9.18078e-11
1.83641e-13
-2.51701e-12
7.45085e-11
1.70018e-13
-1.49848e-11
7.38493e-11
1.14953e-13
-5.86096e-12
1.04453e-10
2.28863e-13
-4.1438e-12
8.54208e-11
2.31931e-13
-2.94281e-11
8.36338e-11
3.56799e-13
-2.9029e-12
7.01369e-11
1.17581e-13
-7.28555e-12
1.1769e-10
2.72441e-13
-6.06997e-12
9.71486e-11
3.07846e-13
-4.31477e-11
9.40566e-11
5.05806e-13
-7.89709e-12
8.11946e-11
1.31274e-12
-1.56298e-09
1.59466e-09
3.28133e-11
1.10154e-13
-8.60837e-12
1.31134e-10
3.06134e-13
-8.33024e-12
1.09431e-10
3.90601e-13
-5.53506e-11
1.0441e-10
6.85663e-13
-1.49029e-11
9.28755e-11
2.30468e-12
-1.37686e-09
3.78515e-11
1.10389e-11
1.35734e-09
9.4035e-11
2.85988e-12
-1.35842e-09
1.38232e-09
7.51911e-12
8.9538e-14
-9.78743e-12
1.44231e-10
3.18307e-13
-1.0883e-11
1.21871e-10
4.54069e-13
-6.53015e-11
1.14419e-10
8.65267e-13
-2.39164e-11
1.04727e-10
4.18655e-12
-1.19492e-09
4.289e-11
4.78709e-12
-1.19703e-09
8.77868e-12
7.38886e-11
1.10782e-09
1.57405e-10
2.15901e-11
1.31971e-09
2.76169e-11
5.65368e-12
-9.70524e-10
9.77126e-10
3.34728e-12
5.36231e-14
-1.07755e-11
1.56256e-10
2.95561e-13
-1.36239e-11
1.33885e-10
4.22304e-13
-7.25607e-11
1.2386e-10
9.92352e-13
-3.48275e-11
1.16162e-10
7.11034e-12
-1.01177e-09
4.83364e-11
8.19021e-12
-1.0291e-09
1.07816e-11
9.06415e-12
-8.44464e-10
3.74552e-12
1.25076e-10
8.44891e-10
1.09781e-10
1.0766e-10
1.25158e-09
6.94803e-11
4.09764e-11
8.85879e-10
1.18013e-11
7.62668e-12
-6.17241e-10
6.21398e-10
9.744e-13
3.92351e-15
-1.15258e-11
1.66364e-10
2.29511e-13
-1.63292e-11
1.44667e-10
1.81385e-13
-7.70536e-11
1.32691e-10
9.41018e-13
-4.66585e-11
1.26211e-10
7.43444e-12
-8.32274e-10
5.43577e-11
9.27734e-12
-8.57017e-10
1.36495e-11
1.06147e-11
-7.01764e-10
4.38823e-12
9.52195e-12
-4.96394e-10
1.11823e-12
4.24829e-11
1.88995e-11
4.15314e-10
9.23205e-11
7.3824e-10
4.03441e-11
1.19299e-10
5.41209e-10
2.03413e-11
4.56757e-11
4.41582e-10
2.95292e-12
6.86626e-12
-3.1049e-10
3.0407e-10
4.11421e-13
7.91979e-14
-1.56121e-12
7.53674e-11
9.76631e-14
-3.16152e-12
8.7397e-11
1.35049e-13
-1.24017e-12
7.04568e-11
1.16022e-13
-4.8033e-12
1.00589e-10
1.79497e-13
-2.76876e-12
8.16466e-11
1.54788e-13
-1.64324e-11
8.09369e-11
1.32044e-13
-6.44379e-12
1.14748e-10
2.31031e-13
-4.56799e-12
9.38566e-11
2.14756e-13
-3.23793e-11
9.19201e-11
3.06621e-13
-3.19262e-12
7.70921e-11
1.42701e-13
-8.03184e-12
1.29597e-10
2.86205e-13
-6.70407e-12
1.07e-10
2.91161e-13
-4.76361e-11
1.03645e-10
4.51329e-13
-8.70776e-12
8.94932e-11
8.19621e-13
-1.72212e-09
1.75664e-09
3.61074e-11
1.44359e-13
-9.51484e-12
1.4472e-10
3.38148e-13
-9.20875e-12
1.20797e-10
3.82443e-13
-6.13334e-11
1.15342e-10
6.38092e-13
-1.64511e-11
1.02658e-10
1.40701e-12
-1.52262e-09
4.17335e-11
6.59899e-12
1.49569e-09
1.03412e-10
1.9398e-12
-1.50008e-09
1.52565e-09
8.15696e-12
1.33013e-13
-1.08387e-11
1.59486e-10
3.76336e-13
-1.2051e-11
1.34797e-10
4.75656e-13
-7.26359e-11
1.26695e-10
8.60811e-13
-2.65794e-11
1.16091e-10
2.55797e-12
-1.32971e-09
4.73552e-11
3.06981e-12
-1.32838e-09
9.52542e-12
4.48259e-11
1.21361e-09
1.72787e-10
1.3783e-11
1.45426e-09
2.9903e-11
3.59385e-12
-1.07665e-09
1.08266e-09
3.56777e-12
1.05153e-13
-1.19526e-11
1.73087e-10
3.8714e-13
-1.50897e-11
1.48346e-10
5.30274e-13
-8.09401e-11
1.37402e-10
1.07927e-12
-3.8664e-11
1.2908e-10
4.62931e-12
-1.14113e-09
5.34099e-11
5.20566e-12
-1.16286e-09
1.17138e-11
5.88007e-12
-9.6258e-10
4.01794e-12
9.71974e-11
9.99528e-10
1.36173e-10
7.73917e-11
1.42671e-09
8.06753e-11
2.73312e-11
1.0055e-09
1.28903e-11
5.20331e-12
-7.06589e-10
7.11362e-10
9.97539e-13
5.9762e-14
-1.27949e-11
1.84527e-10
3.55612e-13
-1.81093e-11
1.60616e-10
4.47688e-13
-8.60574e-11
1.47115e-10
1.21434e-12
-5.20367e-11
1.40796e-10
7.34949e-12
-9.55509e-10
5.99862e-11
8.646e-12
-9.94996e-10
1.48631e-11
9.41494e-12
-8.37255e-10
4.77219e-12
7.9891e-12
-6.13176e-10
1.21242e-12
5.72768e-11
4.49304e-11
7.85167e-10
1.12283e-10
1.27106e-09
7.0341e-11
1.26691e-10
9.14702e-10
3.32665e-11
3.54837e-11
6.39579e-10
3.81243e-12
5.72723e-12
-3.9852e-10
4.00161e-10
4.72388e-13
2.08484e-15
-1.33024e-11
1.92756e-10
2.73628e-13
-2.07875e-11
1.70548e-10
1.28588e-13
-8.81722e-11
1.55657e-10
1.1436e-12
-6.50755e-11
1.49964e-10
6.99674e-12
-7.80286e-10
6.72263e-11
9.04649e-12
-8.30755e-10
1.90492e-11
1.02042e-11
-7.04283e-10
5.96447e-12
9.23638e-12
-5.02774e-10
1.53194e-12
6.88591e-12
-3.16787e-10
5.29414e-13
3.70401e-11
1.47206e-11
7.05379e-10
3.25589e-11
1.26522e-11
3.70103e-10
9.9332e-11
4.61203e-10
2.10183e-11
9.20183e-11
3.62757e-10
7.14761e-12
3.16192e-11
2.74071e-10
1.33288e-12
4.08492e-12
-1.72038e-10
1.6823e-10
1.34752e-13
7.88282e-14
-1.69367e-12
8.17873e-11
1.00128e-13
-3.44236e-12
9.51732e-11
1.25424e-13
-1.35538e-12
7.67324e-11
1.2291e-13
-5.24778e-12
1.09883e-10
1.70694e-13
-3.03566e-12
8.92013e-11
1.38751e-13
-1.79591e-11
8.84319e-11
1.45183e-13
-7.06314e-12
1.25723e-10
2.25814e-13
-5.02302e-12
1.02848e-10
1.95561e-13
-3.55081e-11
1.00741e-10
2.56363e-13
-3.50543e-12
8.44926e-11
1.63998e-13
-8.83053e-12
1.4237e-10
2.88921e-13
-7.38843e-12
1.17566e-10
2.69829e-13
-5.24139e-11
1.13913e-10
3.87857e-13
-9.5793e-12
9.83702e-11
5.26467e-13
-1.89229e-09
1.93002e-09
3.96543e-11
1.75477e-13
-1.04887e-11
1.59361e-10
3.55152e-13
-1.01693e-11
1.33045e-10
3.62683e-13
-6.77126e-11
1.27096e-10
5.69264e-13
-1.81503e-11
1.13157e-10
8.85855e-13
-1.67804e-09
4.59354e-11
4.07046e-12
1.64552e-09
1.13653e-10
1.35776e-12
-1.65246e-09
1.68028e-09
8.86981e-12
1.75041e-13
-1.19772e-11
1.76007e-10
4.15544e-13
-1.33248e-11
1.48796e-10
4.69318e-13
-8.04767e-11
1.39946e-10
8.0221e-13
-2.93779e-11
1.28328e-10
1.58411e-12
-1.47121e-09
5.22197e-11
2.09143e-12
-1.46773e-09
1.03633e-11
2.69164e-11
1.32517e-09
1.88429e-10
9.33246e-12
1.60116e-09
3.23531e-11
2.33194e-12
-1.18743e-09
1.19305e-09
3.79928e-12
1.58053e-13
-1.32314e-11
1.91391e-10
4.56676e-13
-1.67137e-11
1.64079e-10
5.67489e-13
-8.99856e-11
1.52109e-10
1.07475e-12
-4.29647e-11
1.43085e-10
2.9246e-12
-1.27088e-09
5.89659e-11
3.40881e-12
-1.29198e-09
1.27484e-11
3.73434e-12
-1.06927e-09
4.29324e-12
6.36573e-11
1.09603e-09
1.51123e-10
5.23974e-11
1.56372e-09
8.83281e-11
1.76814e-11
1.10855e-09
1.36618e-11
3.42753e-12
-7.82715e-10
7.87061e-10
9.98115e-13
1.21264e-13
-1.41846e-11
2.04401e-10
4.62757e-13
-2.00727e-11
1.77963e-10
5.97891e-13
-9.58761e-11
1.63132e-10
1.33263e-12
-5.77939e-11
1.56413e-10
5.11481e-12
-1.07608e-09
6.62682e-11
5.78121e-12
-1.12278e-09
1.61866e-11
6.17261e-12
-9.52738e-10
5.11432e-12
5.34409e-12
-7.01167e-10
1.24178e-12
4.72442e-11
5.83441e-11
9.51217e-10
9.49302e-11
1.49436e-09
8.58762e-11
9.83203e-11
1.07617e-09
3.8372e-11
2.51421e-11
7.30628e-10
3.96576e-12
4.1427e-12
-4.58062e-10
4.60163e-10
4.81546e-13
6.61711e-14
-1.47581e-11
2.13801e-10
4.17666e-13
-2.30793e-11
1.89353e-10
4.46998e-13
-9.82248e-11
1.72465e-10
1.46476e-12
-7.25228e-11
1.6728e-10
7.36496e-12
-8.89241e-10
7.41596e-11
9.04504e-12
-9.55795e-10
2.07862e-11
9.74306e-12
-8.28355e-10
6.42431e-12
8.22248e-12
-6.09008e-10
1.61854e-12
6.01011e-12
-3.97009e-10
5.76943e-13
5.06575e-11
2.89695e-11
1.2734e-09
4.77882e-11
3.39194e-11
7.36018e-10
1.34742e-10
9.0955e-10
4.00822e-11
1.07688e-10
6.45684e-10
1.14917e-11
2.63099e-11
4.0752e-10
1.76336e-12
3.54852e-12
-2.23621e-10
2.24494e-10
1.35959e-13
2.68857e-15
-1.48804e-11
2.18448e-10
3.13619e-13
-2.53512e-11
1.97006e-10
6.07177e-14
-9.74027e-11
1.79718e-10
1.35291e-12
-8.50452e-11
1.74273e-10
6.19571e-12
-7.19171e-10
8.26531e-11
8.69054e-12
-7.98699e-10
2.648e-11
9.82625e-12
-7.03383e-10
8.32273e-12
8.87392e-12
-5.07876e-10
2.19231e-12
6.74594e-12
-3.22711e-10
7.10521e-13
4.14396e-12
-1.75834e-10
1.81517e-13
3.91681e-11
9.99346e-12
4.26762e-10
2.90553e-11
1.1365e-11
6.7761e-10
5.37917e-11
1.50197e-11
3.01291e-10
7.34795e-11
3.0337e-10
6.92586e-12
6.20996e-11
2.16367e-10
2.75186e-12
1.8468e-11
1.5067e-10
4.2421e-13
2.03851e-12
-8.2998e-11
8.1035e-11
5.92918e-14
7.63594e-14
-1.83028e-12
8.842e-11
9.96567e-14
-3.73462e-12
1.0328e-10
1.14057e-13
-1.47509e-12
8.32738e-11
1.26012e-13
-5.71423e-12
1.1966e-10
1.58522e-13
-3.31619e-12
9.71461e-11
1.22459e-13
-1.95609e-11
9.63097e-11
1.53812e-13
-7.71711e-12
1.3734e-10
2.14742e-13
-5.50529e-12
1.12364e-10
1.75322e-13
-3.88077e-11
1.1007e-10
2.09615e-13
-3.83656e-12
9.23152e-11
1.80366e-13
-9.67954e-12
1.55987e-10
2.82401e-13
-8.12183e-12
1.28828e-10
2.45842e-13
-5.74794e-11
1.24843e-10
3.24232e-13
-1.05142e-11
1.07814e-10
3.47529e-13
-2.07342e-09
2.11465e-09
4.34407e-11
2.01827e-13
-1.15313e-11
1.75067e-10
3.58549e-13
-1.12052e-11
1.46184e-10
3.36663e-13
-7.4504e-11
1.39682e-10
4.89244e-13
-1.99719e-11
1.24385e-10
5.72954e-13
-1.84406e-09
5.04542e-11
2.58664e-12
1.80676e-09
1.2475e-10
9.56282e-13
-1.81587e-09
1.84627e-09
9.65634e-12
2.13247e-13
-1.32015e-11
1.93813e-10
4.36379e-13
-1.47136e-11
1.63884e-10
4.47128e-13
-8.8843e-11
1.54198e-10
7.15539e-13
-3.24281e-11
1.4146e-10
1.00712e-12
-1.62179e-09
5.7483e-11
1.46924e-12
-1.6172e-09
1.12946e-11
1.64864e-11
1.45004e-09
2.05909e-10
6.50132e-12
1.76168e-09
3.50839e-11
1.53077e-12
-1.30607e-09
1.31169e-09
4.05419e-12
2.09096e-13
-1.46173e-11
2.11216e-10
5.04074e-13
-1.84845e-11
1.8112e-10
5.66782e-13
-9.96787e-11
1.67999e-10
1.00317e-12
-4.75358e-11
1.58176e-10
1.84464e-12
-1.40682e-09
6.50241e-11
2.34108e-12
-1.42835e-09
1.39089e-11
2.4235e-12
-1.18035e-09
4.59291e-12
3.94167e-11
1.18535e-09
1.64066e-10
3.58647e-11
1.71053e-09
9.5589e-11
1.15325e-11
1.21715e-09
1.43967e-11
2.2853e-12
-8.61292e-10
8.6524e-10
9.93498e-13
1.84468e-13
-1.56962e-11
2.26015e-10
5.44847e-13
-2.22383e-11
1.96834e-10
6.59756e-13
-1.06521e-10
1.80552e-10
1.32926e-12
-6.42258e-11
1.73374e-10
3.35919e-12
-1.1992e-09
7.31575e-11
3.90202e-12
-1.2488e-09
1.76685e-11
3.95785e-12
-1.05979e-09
5.48597e-12
3.47711e-12
-7.77814e-10
1.25942e-12
3.24191e-11
6.57337e-11
1.04512e-09
6.99946e-11
1.64476e-09
9.50192e-11
6.82006e-11
1.18625e-09
4.07533e-11
1.70557e-11
8.04885e-10
3.92436e-12
2.8454e-12
-5.07495e-10
5.09315e-10
4.75142e-13
1.37516e-13
-1.63533e-11
2.36827e-10
5.40644e-13
-2.5595e-11
2.098e-10
6.47154e-13
-1.09289e-10
1.91175e-10
1.6173e-12
-8.05961e-11
1.85782e-10
5.52379e-12
-9.99761e-10
8.1936e-11
6.46178e-12
-1.07664e-09
2.27121e-11
6.60194e-12
-9.40315e-10
6.90527e-12
5.46016e-12
-6.94961e-10
1.67077e-12
4.22919e-12
-4.55627e-10
5.87368e-13
4.49675e-11
3.6538e-11
1.52186e-09
4.14219e-11
4.57319e-11
9.11851e-10
1.21643e-10
1.12589e-09
4.92541e-11
8.99943e-11
7.73763e-10
1.29306e-11
1.99203e-11
4.68698e-10
1.81975e-12
2.69347e-12
-2.57802e-10
2.5902e-10
1.18446e-13
7.36342e-14
-1.6503e-11
2.42304e-10
4.7527e-13
-2.81637e-11
2.18724e-10
4.19721e-13
-1.08297e-10
1.99066e-10
1.72305e-12
-9.47917e-11
1.94363e-10
7.04926e-12
-8.14016e-10
9.12025e-11
9.26008e-12
-9.11226e-10
2.90211e-11
1.00144e-11
-8.16733e-10
8.97657e-12
8.37294e-12
-6.04388e-10
2.30539e-12
6.15428e-12
-3.95548e-10
7.49228e-13
3.7349e-12
-2.22814e-10
1.79371e-13
6.03837e-11
1.99212e-11
8.97383e-10
4.25874e-11
2.3818e-11
1.26997e-09
8.52221e-11
5.12214e-11
6.53366e-10
1.12399e-10
6.33447e-10
1.33998e-11
7.88144e-11
3.97583e-10
4.71332e-12
1.61274e-11
2.28127e-10
4.7039e-13
1.80713e-12
-1.08511e-10
1.08817e-10
6.16288e-14
6.76593e-15
2.41449e-10
3.43297e-13
-2.9574e-11
2.22328e-10
-4.36547e-15
-1.04058e-10
2.03666e-10
1.5344e-12
-1.04639e-10
1.97778e-10
5.07356e-12
-6.50688e-10
1.00716e-10
8.04294e-12
-7.60419e-10
3.63301e-11
9.32823e-12
-6.9798e-10
1.17486e-11
8.477e-12
-5.11261e-10
3.23036e-12
6.49081e-12
-3.28008e-10
9.98508e-13
4.09476e-12
-1.79474e-10
2.56078e-13
2.07955e-12
-8.49744e-11
7.8334e-14
2.80368e-11
2.80712e-12
2.8252e-10
3.03413e-11
8.27676e-12
3.99509e-10
4.88776e-11
2.06622e-11
6.2309e-10
7.71657e-11
1.07016e-11
2.13424e-10
4.81416e-11
1.72602e-10
2.54958e-12
3.54682e-11
1.17147e-10
8.06859e-13
9.13327e-12
7.21443e-11
1.81636e-13
8.83558e-13
-3.52113e-11
3.43726e-11
1.44003e-14
7.21329e-14
-1.96986e-12
9.52024e-11
9.65317e-14
-4.03606e-12
1.11656e-10
1.0176e-13
-1.59832e-12
9.00306e-11
1.25417e-13
-6.19966e-12
1.29853e-10
1.44151e-13
-3.60776e-12
1.05427e-10
1.06393e-13
-2.12281e-11
1.04518e-10
1.57697e-13
-8.40345e-12
1.4956e-10
1.99429e-13
-6.01215e-12
1.22372e-10
1.54747e-13
-4.22698e-11
1.19876e-10
1.68568e-13
-4.18388e-12
1.00535e-10
1.91111e-13
-1.05762e-11
1.704e-10
2.68569e-13
-8.89891e-12
1.40748e-10
2.20474e-13
-6.28215e-11
1.36403e-10
2.6509e-13
-1.15024e-11
1.17795e-10
2.3437e-13
-2.26499e-09
2.30997e-09
4.7449e-11
2.22072e-13
-1.26401e-11
1.9181e-10
3.50492e-13
-1.23142e-11
1.60187e-10
3.07052e-13
-8.17048e-11
1.53083e-10
4.08962e-13
-2.19192e-11
1.36329e-10
3.80554e-13
-2.02068e-09
5.52748e-11
1.68975e-12
1.97891e-09
1.36635e-10
6.70226e-13
-1.98987e-09
2.02309e-09
1.051e-11
2.45562e-13
-1.45129e-11
2.12913e-10
4.40644e-13
-1.62103e-11
1.80068e-10
4.16238e-13
-9.7752e-11
1.69463e-10
6.15024e-13
-3.56927e-11
1.55504e-10
6.56196e-13
-1.78247e-09
6.31405e-11
1.03804e-12
-1.7773e-09
1.23162e-11
1.03964e-11
1.58754e-09
2.25306e-10
4.55698e-12
1.93485e-09
3.81091e-11
1.00441e-12
-1.43328e-09
1.43913e-09
4.33914e-12
2.55464e-13
-1.61091e-11
2.32582e-10
5.29406e-13
-2.04106e-11
1.99484e-10
5.43972e-13
-1.10032e-10
1.85096e-10
8.94748e-13
-5.24948e-11
1.74373e-10
1.18623e-12
-1.55125e-09
7.15784e-11
1.65244e-12
-1.57422e-09
1.51908e-11
1.5942e-12
-1.29887e-09
4.92447e-12
2.43483e-11
1.2867e-09
1.7841e-10
2.48779e-11
1.8751e-09
1.03481e-10
7.56444e-12
1.33554e-09
1.51995e-11
1.54951e-12
-9.45518e-10
9.49316e-10
9.91703e-13
2.45472e-13
-1.73354e-11
2.49425e-10
6.01366e-13
-2.45991e-11
2.17274e-10
6.7078e-13
-1.17961e-10
1.9939e-10
1.24326e-12
-7.11147e-11
1.91664e-10
2.16827e-12
-1.32813e-09
8.06702e-11
2.7125e-12
-1.38146e-09
1.93228e-11
2.58121e-12
-1.17096e-09
5.89952e-12
2.30195e-12
-8.56802e-10
1.27888e-12
2.05088e-11
7.15631e-11
1.12569e-09
4.95731e-11
1.79252e-09
1.02496e-10
4.55792e-11
1.29304e-09
4.23226e-11
1.15376e-11
8.81343e-10
3.81144e-12
1.90751e-12
-5.57908e-10
5.59376e-10
4.6358e-13
2.11208e-13
-1.80897e-11
2.61869e-10
6.36003e-13
-2.83615e-11
2.32043e-10
7.43806e-13
-1.21329e-10
2.11546e-10
1.61827e-12
-8.95729e-11
2.05898e-10
3.79274e-12
-1.11455e-09
9.04556e-11
4.52709e-12
-1.19857e-09
2.48578e-11
4.33025e-12
-1.0473e-09
7.4425e-12
3.5315e-12
-7.72124e-10
1.72415e-12
2.84747e-12
-5.05441e-10
5.87673e-13
3.4547e-11
4.06106e-11
1.6803e-09
2.94514e-11
5.21142e-11
1.00498e-09
9.21407e-11
1.25702e-09
5.37478e-11
6.63531e-11
8.56231e-10
1.30479e-11
1.41838e-11
5.17218e-10
1.75802e-12
1.94904e-12
-2.85683e-10
2.86808e-10
9.48345e-14
1.53666e-13
-1.82806e-11
2.68399e-10
6.1367e-13
-3.12435e-11
2.42337e-10
6.70728e-13
-1.20346e-10
2.20606e-10
1.91204e-12
-1.05395e-10
2.15785e-10
5.7342e-12
-9.13464e-10
1.00799e-10
7.13455e-12
-1.02439e-09
3.18164e-11
7.16578e-12
-9.24453e-10
9.69887e-12
5.63812e-12
-6.87732e-10
2.41082e-12
4.24029e-12
-4.52809e-10
7.67388e-13
2.7481e-12
-2.56391e-10
1.63447e-13
5.79314e-11
2.516e-11
1.13972e-09
3.92481e-11
3.07758e-11
1.54015e-09
8.01069e-11
7.36341e-11
8.43332e-10
1.10625e-10
8.08302e-10
1.64896e-11
7.04353e-11
4.84767e-10
5.24086e-12
1.28603e-11
2.63721e-10
3.86357e-13
1.41014e-12
-1.25225e-10
1.25687e-10
5.3593e-14
8.27062e-14
2.67828e-10
5.20609e-13
-3.28642e-11
2.46827e-10
3.74015e-13
-1.15546e-10
2.25595e-10
1.95341e-12
-1.16648e-10
2.20504e-10
6.37295e-12
-7.32153e-10
1.112e-10
9.16962e-12
-8.61133e-10
3.99826e-11
1.01261e-11
-8.01255e-10
1.27448e-11
8.46045e-12
-5.98821e-10
3.42622e-12
6.19058e-12
-3.93985e-10
1.04252e-12
3.82093e-12
-2.22044e-10
2.53273e-13
1.90581e-12
-1.08237e-10
7.90008e-14
4.92832e-11
6.13298e-12
6.25989e-10
5.02035e-11
1.72194e-11
8.84119e-10
7.7643e-11
4.45922e-11
1.24783e-09
1.37189e-10
6.37855e-11
5.29558e-10
8.04934e-11
3.7326e-10
5.37138e-12
4.76155e-11
2.19613e-10
1.08006e-12
8.16334e-12
1.10048e-10
2.09369e-13
7.98402e-13
-4.62106e-11
4.63522e-11
5.22005e-15
3.5791e-13
-3.29658e-11
2.44483e-10
-4.93122e-14
-1.07602e-10
2.25921e-10
1.64714e-12
-1.21651e-10
2.19031e-10
3.80287e-12
-5.77748e-10
1.21035e-10
7.08728e-12
-7.15639e-10
4.88493e-11
8.55362e-12
-6.86764e-10
1.65608e-11
7.98827e-12
-5.12315e-10
4.81424e-12
6.16677e-12
-3.32399e-10
1.45469e-12
3.95611e-12
-1.82808e-10
3.7633e-13
2.06356e-12
-8.68897e-11
1.0781e-13
9.04114e-13
-3.60583e-11
2.1208e-14
1.77797e-11
1.16679e-12
1.56462e-10
2.13657e-11
2.28155e-12
2.6715e-10
5.02516e-11
1.39932e-11
3.55927e-10
7.26236e-11
3.52311e-11
5.25937e-10
8.38126e-11
1.09379e-12
1.28517e-10
2.65921e-11
9.25914e-11
5.13224e-13
1.73455e-11
5.52961e-11
3.09515e-13
3.94058e-12
3.0577e-11
3.66332e-14
3.50268e-13
-1.36972e-11
1.33674e-11
-6.03908e-15
6.65744e-14
-2.1108e-12
1.02056e-10
9.11839e-14
-4.34402e-12
1.20221e-10
8.92145e-14
-1.72373e-12
9.69387e-11
1.21481e-13
-6.70034e-12
1.40384e-10
1.28604e-13
-3.90797e-12
1.13981e-10
9.09932e-14
-2.29486e-11
1.12995e-10
1.56951e-13
-9.11773e-12
1.62301e-10
1.81352e-13
-6.53904e-12
1.32803e-10
1.34448e-13
-4.5873e-11
1.30092e-10
1.33846e-13
-4.54411e-12
1.09097e-10
1.9595e-13
-1.15173e-11
1.85562e-10
2.49431e-13
-9.71549e-12
1.53283e-10
1.94639e-13
-6.84264e-11
1.48554e-10
2.13165e-13
-1.25389e-11
1.28282e-10
1.60308e-13
-2.46641e-09
2.51536e-09
5.16632e-11
2.35361e-13
-1.38113e-11
2.09533e-10
3.33376e-13
-1.34889e-11
1.75008e-10
2.75548e-13
-8.92987e-11
1.67257e-10
3.34367e-13
-2.39758e-11
1.48951e-10
2.58151e-13
-2.20745e-09
6.03767e-11
1.12808e-12
2.1613e-09
1.49235e-10
4.65294e-13
-2.17384e-09
2.21007e-09
1.14242e-11
2.70383e-13
-1.59082e-11
2.33275e-10
4.30857e-13
-1.78112e-11
1.97316e-10
3.80314e-13
-1.07199e-10
1.85717e-10
5.14084e-13
-3.91746e-11
1.7044e-10
4.38515e-13
-1.95331e-09
6.91745e-11
7.29611e-13
-1.94771e-09
1.34207e-11
6.74258e-12
1.7362e-09
2.46364e-10
3.17879e-12
2.1197e-09
4.14046e-11
6.53688e-13
-1.56883e-09
1.57504e-09
4.65613e-12
2.94651e-13
-1.77078e-11
2.55502e-10
5.34837e-13
-2.24851e-11
2.19182e-10
5.08725e-13
-1.21061e-10
2.03412e-10
7.6925e-13
-5.77976e-11
1.91693e-10
7.79179e-13
-1.70518e-09
7.86228e-11
1.1717e-12
-1.73027e-09
1.65896e-11
1.04884e-12
-1.42572e-09
5.29279e-12
1.53808e-11
1.40181e-09
1.94693e-10
1.73233e-11
2.05548e-09
1.1223e-10
4.95023e-12
1.46373e-09
1.61177e-11
1.06052e-12
-1.03618e-09
1.04001e-09
9.97627e-13
3.00887e-13
-1.91014e-11
2.74654e-10
6.31977e-13
-2.71624e-11
2.39303e-10
6.50856e-13
-1.30196e-10
2.19669e-10
1.10947e-12
-7.85656e-11
2.11301e-10
1.41429e-12
-1.46492e-09
8.8798e-11
1.92633e-12
-1.52299e-09
2.11398e-11
1.70597e-12
-1.28917e-09
6.35762e-12
1.55829e-12
-9.41155e-10
1.30558e-12
1.28067e-11
7.77994e-11
1.2166e-09
3.47092e-11
1.95806e-09
1.10313e-10
3.00564e-11
1.41067e-09
4.38785e-11
7.85476e-12
9.64513e-10
3.68577e-12
1.23501e-12
-6.11635e-10
6.12849e-10
4.5053e-13
2.82556e-13
-1.99735e-11
2.8899e-10
7.02487e-13
-3.13763e-11
2.56135e-10
7.74751e-13
-1.3431e-10
2.33593e-10
1.51829e-12
-9.92386e-11
2.27614e-10
2.52012e-12
-1.23493e-09
9.97409e-11
3.20042e-12
-1.3267e-09
2.72369e-11
2.85781e-12
-1.15821e-09
8.04399e-12
2.32724e-12
-8.51487e-10
1.78883e-12
1.88191e-12
-5.5625e-10
5.8651e-13
2.49527e-11
4.35879e-11
1.83009e-09
1.89697e-11
5.67597e-11
1.07942e-09
6.43199e-11
1.36701e-09
5.63485e-11
4.65968e-11
9.3086e-10
1.25619e-11
9.71993e-12
5.66005e-10
1.64616e-12
1.37633e-12
-3.1391e-10
3.14878e-10
6.87562e-14
2.37028e-13
-2.02159e-11
2.96779e-10
7.22505e-13
-3.46237e-11
2.68022e-10
8.10377e-13
-1.33496e-10
2.4407e-10
1.92353e-12
-1.17136e-10
2.39098e-10
4.14444e-12
-1.01836e-09
1.11294e-10
5.21637e-12
-1.14109e-09
3.49021e-11
4.86911e-12
-1.03064e-09
1.05038e-11
3.67144e-12
-7.65246e-10
2.53079e-12
2.80076e-12
-5.0306e-10
7.82304e-13
1.94325e-12
-2.84434e-10
1.43426e-13
4.59374e-11
2.79765e-11
1.28165e-09
3.09759e-11
3.45148e-11
1.70617e-09
5.99077e-11
8.55717e-11
9.39605e-10
9.02822e-11
9.1298e-10
1.73412e-11
5.48021e-11
5.40856e-10
5.04275e-12
9.66536e-12
2.91503e-10
2.57975e-13
1.05768e-12
-1.38738e-10
1.39144e-10
4.0934e-14
1.69347e-13
2.96672e-10
6.7297e-13
-3.64631e-11
2.73466e-10
6.67293e-13
-1.28266e-10
2.49963e-10
2.18093e-12
-1.29728e-10
2.44712e-10
5.65469e-12
-8.19917e-10
1.22957e-10
7.65348e-12
-9.66038e-10
4.39612e-11
7.77285e-12
-9.04132e-10
1.38484e-11
5.9311e-12
-6.79138e-10
3.63419e-12
4.24352e-12
-4.49533e-10
1.08139e-12
2.73255e-12
-2.54778e-10
2.42611e-13
1.43997e-12
-1.24667e-10
7.16526e-14
5.22552e-11
7.96035e-12
8.22529e-10
5.03132e-11
2.22041e-11
1.14819e-09
7.64177e-11
5.92829e-11
1.55573e-09
1.45482e-10
1.03318e-10
7.3172e-10
8.52131e-11
4.89922e-10
6.61527e-12
4.47972e-11
2.7091e-10
8.69844e-13
6.6967e-12
1.27371e-10
1.68837e-13
6.38851e-13
-5.34073e-11
5.36296e-11
-9.25872e-15
5.46758e-13
-3.66354e-11
2.7141e-10
3.23953e-13
-1.19391e-10
2.50298e-10
2.11126e-12
-1.35597e-10
2.4408e-10
5.40162e-12
-6.46986e-10
1.33738e-10
8.70937e-12
-8.05481e-10
5.39271e-11
9.94681e-12
-7.8074e-10
1.80745e-11
8.45373e-12
-5.91713e-10
5.1711e-12
6.15223e-12
-3.92073e-10
1.52942e-12
3.82139e-12
-2.21246e-10
3.78914e-13
1.94976e-12
-1.07978e-10
1.07679e-13
8.4268e-13
-4.60826e-11
1.23562e-14
3.42152e-11
2.62865e-12
3.60329e-10
4.03218e-11
5.31131e-12
6.18941e-10
9.021e-11
3.18401e-11
8.56913e-10
1.30757e-10
7.9503e-11
1.17398e-09
1.78029e-10
6.01467e-11
3.75195e-10
4.72261e-11
2.03576e-10
7.74558e-13
2.38849e-11
1.04161e-10
4.27107e-13
3.59782e-12
4.69123e-11
-8.14906e-15
3.22248e-13
-1.80246e-11
1.80823e-11
-2.44946e-14
3.55668e-13
-3.50999e-11
2.61362e-10
-6.52533e-14
-1.07754e-10
2.44699e-10
1.65941e-12
-1.34072e-10
2.36683e-10
2.59447e-12
-5.03937e-10
1.42625e-10
5.9369e-12
-6.64544e-10
6.40036e-11
7.46772e-12
-6.68459e-10
2.30767e-11
7.31298e-12
-5.1021e-10
7.14367e-12
5.76464e-12
-3.35511e-10
2.16074e-12
3.75731e-12
-1.85679e-10
5.68567e-13
1.99771e-12
-8.86659e-11
1.54889e-13
8.9953e-13
-3.68824e-11
3.22781e-14
3.58934e-13
-1.4031e-11
-4.03325e-15
9.53373e-12
1.19094e-13
8.41053e-11
1.33407e-11
9.54143e-13
1.44449e-10
3.45705e-11
4.33144e-12
2.42241e-10
7.28471e-11
2.14954e-11
2.96815e-10
8.85433e-11
4.97173e-11
3.8877e-10
6.23978e-11
-2.26596e-12
6.83856e-11
1.27484e-11
4.28732e-11
1.87589e-13
7.45742e-12
2.34142e-11
1.47998e-14
1.55983e-12
1.18848e-11
-4.0593e-14
1.33704e-13
-5.02663e-12
4.90908e-12
-2.22339e-14
6.01488e-14
-2.25129e-12
1.08891e-10
8.41528e-14
-4.65499e-12
1.28876e-10
7.6962e-14
-1.84999e-12
1.03919e-10
1.14747e-13
-7.21182e-12
1.51153e-10
1.12746e-13
-4.21365e-12
1.22727e-10
7.66281e-14
-2.47067e-11
1.2166e-10
1.52022e-13
-9.85446e-12
1.75463e-10
1.61793e-13
-7.08166e-12
1.43577e-10
1.14988e-13
-4.95914e-11
1.40643e-10
1.05253e-13
-4.91444e-12
1.17938e-10
1.95026e-13
-1.24968e-11
2.01369e-10
2.26833e-13
-1.05645e-11
1.66349e-10
1.69129e-13
-7.42597e-11
1.61215e-10
1.69252e-13
-1.36149e-11
1.39207e-10
1.10255e-13
-2.67634e-09
2.72943e-09
5.60539e-11
2.41352e-13
-1.50408e-11
2.28176e-10
3.09662e-13
-1.47232e-11
1.90593e-10
2.43361e-13
-9.72659e-11
1.82155e-10
2.68873e-13
-2.61326e-11
1.62213e-10
1.77633e-13
-2.40379e-09
6.57399e-11
7.63312e-13
2.35324e-09
1.62487e-10
3.19851e-13
-2.36716e-09
2.40658e-09
1.23932e-11
2.86677e-13
-1.73824e-11
2.54829e-10
4.09946e-13
-1.95063e-11
2.15571e-10
3.4169e-13
-1.17161e-10
2.02909e-10
4.20336e-13
-4.285e-11
1.86225e-10
2.99148e-13
-2.13392e-09
7.55598e-11
5.07863e-13
-2.12785e-09
1.46007e-11
4.47099e-12
1.89474e-09
2.68829e-10
2.19776e-12
2.31535e-09
4.49432e-11
4.19769e-13
-1.71227e-09
1.71892e-09
5.00474e-12
3.24749e-13
-1.94096e-11
2.79936e-10
5.23253e-13
-2.47021e-11
2.40177e-10
4.66181e-13
-1.32758e-10
2.22918e-10
6.43064e-13
-6.34444e-11
2.10113e-10
5.2399e-13
-1.86875e-09
8.61357e-11
8.26254e-13
-1.89629e-09
1.80968e-11
6.84584e-13
-1.56075e-09
5.69904e-12
9.98128e-12
1.52896e-09
2.12643e-10
1.2011e-11
2.24958e-09
1.21792e-10
3.21115e-12
1.60101e-09
1.71667e-11
7.27057e-13
-1.1331e-09
1.13707e-09
1.0133e-12
3.47723e-13
-2.09951e-11
3.01719e-10
6.3908e-13
-2.99216e-11
2.62931e-10
6.12893e-13
-1.43239e-10
2.41398e-10
9.545e-13
-8.65297e-11
2.32299e-10
9.38209e-13
-1.61054e-09
9.75339e-11
1.37161e-12
-1.6742e-09
2.31142e-11
1.12755e-12
-1.41541e-09
6.86323e-12
1.06794e-12
-1.03174e-09
1.34311e-12
8.13812e-12
8.48793e-11
1.3216e-09
2.41893e-11
2.14164e-09
1.19056e-10
1.96628e-11
1.54061e-09
4.57518e-11
5.37209e-12
1.05503e-09
3.58132e-12
7.5235e-13
-6.69311e-10
6.70353e-10
4.38573e-13
3.47475e-13
-2.20047e-11
3.1822e-10
7.39332e-13
-3.46455e-11
2.821e-10
7.63194e-13
-1.48217e-10
2.57335e-10
1.35723e-12
-1.09674e-10
2.50938e-10
1.67437e-12
-1.36256e-09
1.09785e-10
2.29144e-12
-1.46312e-09
2.98375e-11
1.90474e-12
-1.27578e-09
8.70856e-12
1.57524e-12
-9.35913e-10