/*--------------------------------*- C++ -*----------------------------------*\
  =========                 |
  \\      /  F ield         | OpenFOAM: The Open Source CFD Toolbox
   \\    /   O peration     | Website:  https://openfoam.org
    \\  /    A nd           | Version:  7
     \\/     M anipulation  |
\*---------------------------------------------------------------------------*/
FoamFile
{
    version     2.0;
    format      ascii;
    class       volVectorField;
    location    "200";
    object      U;
}
// * * * * * * * * * * * * * * * * * * * * * * * * * * * * * * * * * * * * * //

dimensions      [0 1 -1 0 0 0 0];

internalField   nonuniform List<vector> 
43144
(
(0.62851 5.47762e-06 -0.000126432)
(0.628525 3.05566e-05 -0.00012733)
(0.628508 5.33405e-06 -0.000405411)
(0.651823 0.000104778 -0.000129434)
(0.628547 6.77633e-05 -0.000127821)
(0.628523 3.03342e-05 -0.000408261)
(0.651877 0.000260726 -0.000127557)
(0.628502 5.01909e-06 -0.000738268)
(0.651758 0.00010508 -0.000441112)
(0.649415 0.000303414 -0.00217369)
(0.62858 0.000104493 -0.000128105)
(0.628545 6.76494e-05 -0.000409813)
(0.651954 0.000367761 -0.000126756)
(0.628517 2.98448e-05 -0.000743287)
(0.65181 0.000261163 -0.00043512)
(0.649689 0.000742801 -0.00221894)
(0.628489 4.43327e-06 -0.00113753)
(0.651621 0.000105752 -0.000886612)
(0.649434 0.000296015 -0.00689594)
(0.954697 0.00134449 -0.00038776)
(0.628622 0.000143047 -0.000128359)
(0.628578 0.000104422 -0.000410738)
(0.652041 0.000462947 -0.000126944)
(0.628539 6.73957e-05 -0.000746016)
(0.651887 0.000367868 -0.000432675)
(0.649923 0.000909116 -0.00224215)
(0.628505 2.89315e-05 -0.00114475)
(0.65167 0.00026212 -0.000876061)
(0.649702 0.000731667 -0.00703511)
(0.9631 0.00236085 -0.000599001)
(0.628463 3.4739e-06 -0.00160615)
(0.651364 0.000106994 -0.00149873)
(0.649446 0.000280671 -0.0122929)
(0.9499 0.00129457 -0.00168259)
(0.683977 0.072945 -0.772308)
(0.628671 0.000178707 -0.000128512)
(0.628619 0.000142998 -0.000411558)
(0.652132 0.000525163 -0.00012714)
(0.628573 0.00010426 -0.000747728)
(0.651973 0.000462911 -0.000433242)
(0.650227 0.00095119 -0.00225733)
(0.628527 6.69126e-05 -0.00114874)
(0.651745 0.000368095 -0.000872056)
(0.649936 0.000903413 -0.00710748)
(0.968007 0.00236837 -0.000622295)
(0.628479 2.74229e-05 -0.00161516)
(0.651408 0.000263861 -0.00148386)
(0.649707 0.000708218 -0.0125235)
(0.957996 0.00232833 -0.0020602)
(0.709699 0.0570446 -0.828393)
(0.628413 2.0993e-06 -0.00214376)
(0.650923 0.000108969 -0.00232931)
(0.649402 0.000254089 -0.0184204)
(0.939488 0.00122574 -0.00457683)
(0.703216 0.0459689 -0.772624)
(0.589532 0.126504 -0.795525)
(0.131569 0.0680277 -0.568735)
(0.628725 0.000210318 -0.000128614)
(0.628668 0.000178679 -0.000412061)
(0.652223 0.000564847 -0.000127669)
(0.628614 0.000142885 -0.000749223)
(0.652064 0.000525095 -0.000433891)
(0.650535 0.000940029 -0.00226701)
(0.62856 0.000103944 -0.00115136)
(0.65183 0.000462835 -0.000873037)
(0.65024 0.000947825 -0.00715535)
(0.970845 0.00248337 -0.00062731)
(0.628501 6.60883e-05 -0.00162033)
(0.65148 0.00036848 -0.00147855)
(0.64994 0.000891078 -0.0126476)
(0.96275 0.00236246 -0.00209808)
(0.714239 0.033483 -0.844789)
(0.62843 2.52208e-05 -0.00215354)
(0.650959 0.000266591 -0.00231156)
(0.649655 0.000666881 -0.0187291)
(0.946827 0.00228398 -0.00497157)
(0.715028 0.0462097 -0.821108)
(0.668101 0.0903368 -0.893373)
(0.135367 0.0502111 -0.617767)
(0.628323 4.09588e-07 -0.00274679)
(0.650214 0.00011164 -0.00343042)
(0.64922 0.000214071 -0.0250729)
(0.923155 0.00116233 -0.00926767)
(0.709537 0.0300179 -0.75574)
(0.13967 0.0449243 -0.568381)
(0.39378 0.090402 -0.616603)
(0.125121 0.110345 -0.591398)
(0.0809311 0.0529137 -0.335713)
(0.628782 0.000235828 -0.000128663)
(0.628722 0.000210303 -0.000412403)
(0.652311 0.000579802 -0.00012824)
(0.628663 0.000178613 -0.000750175)
(0.652155 0.000564746 -0.000435569)
(0.650844 0.00089628 -0.00227308)
(0.628601 0.000142663 -0.00115362)
(0.651921 0.000524946 -0.000874329)
(0.650548 0.000938077 -0.00718597)
(0.972556 0.00233927 -0.000624226)
(0.628535 0.00010339 -0.00162387)
(0.651564 0.000462671 -0.00148017)
(0.650244 0.000940424 -0.0127315)
(0.965555 0.00248281 -0.0021132)
(0.715482 0.0193317 -0.848206)
(0.628452 6.48204e-05 -0.00215957)
(0.651027 0.000369006 -0.00230569)
(0.649887 0.000868469 -0.0189044)
(0.951279 0.00235614 -0.00501196)
(0.717669 0.0274232 -0.837943)
(0.67882 0.0541072 -0.908352)
(0.132693 0.0306196 -0.630112)
(0.62834 2.24218e-05 -0.00275586)
(0.650241 0.000270211 -0.00341268)
(0.649466 0.000603094 -0.0254281)
(0.929402 0.00224349 -0.00957676)
(0.714113 0.0378361 -0.796839)
(0.139348 0.0418798 -0.609607)
(0.540728 0.128648 -0.780021)
(0.143677 0.0731775 -0.677822)
(0.0858035 0.0444134 -0.376115)
(0.628169 -1.31639e-06 -0.00340566)
(0.649146 0.000114579 -0.00483546)
(0.648773 0.000161497 -0.0319593)
(0.901036 0.00111721 -0.0160243)
(0.707127 0.0208304 -0.731078)
(0.152866 0.0297613 -0.561278)
(0.0800354 0.0370763 -0.342062)
(0.240985 0.0634967 -0.445867)
(0.10037 0.0763821 -0.547184)
(0.0905051 0.0807749 -0.335122)
(0.0209478 0.0345597 -0.189314)
(0.62884 0.000254127 -0.000128676)
(0.628779 0.000235822 -0.000412577)
(0.652392 0.000574844 -0.00012885)
(0.628717 0.000210265 -0.000750837)
(0.652242 0.000579704 -0.000437386)
(0.651131 0.000836283 -0.00227686)
(0.62865 0.000178478 -0.00115511)
(0.652011 0.000564528 -0.000877367)
(0.650858 0.000895155 -0.00720531)
(0.973623 0.00213305 -0.000624267)
(0.628576 0.000142271 -0.00162693)
(0.651654 0.000524639 -0.00148247)
(0.650552 0.000933743 -0.0127858)
(0.967253 0.00234069 -0.00210698)
(0.716166 0.0115241 -0.849376)
(0.628485 0.000102512 -0.00216389)
(0.651107 0.000462303 -0.00230843)
(0.650191 0.000926565 -0.0190267)
(0.954012 0.00248464 -0.00504173)
(0.718816 0.0161801 -0.842204)
(0.680129 0.0307465 -0.909854)
(0.129824 0.0188247 -0.631347)
(0.628363 6.30749e-05 -0.00276213)
(0.650302 0.000369495 -0.00340762)
(0.649698 0.00083152 -0.0256467)
(0.933419 0.00235398 -0.00961085)
(0.715606 0.0232942 -0.812725)
(0.13645 0.0256223 -0.622474)
(0.570077 0.0905234 -0.792997)
(0.141985 0.0459697 -0.688505)
(0.0846678 0.0296846 -0.387115)
(0.628187 1.93962e-05 -0.00341256)
(0.64916 0.000274037 -0.00482153)
(0.649014 0.000516202 -0.0323154)
(0.906013 0.00221537 -0.016238)
(0.708583 0.0310218 -0.764819)
(0.150317 0.0348485 -0.595635)
(0.0813433 0.0370161 -0.376159)
(0.419197 0.138118 -0.664315)
(0.145801 0.0934359 -0.705704)
(0.107224 0.063679 -0.401774)
(0.0209185 0.0306272 -0.217287)
(0.627922 -2.6791e-06 -0.00410074)
(0.647621 0.000116932 -0.00654166)
(0.647885 0.000101554 -0.0387532)
(0.873698 0.00108917 -0.0250227)
(0.699259 0.0150846 -0.699797)
(0.17078 0.020419 -0.549348)
(0.0828248 0.0254885 -0.345875)
(0.021901 0.0251715 -0.193612)
(0.170956 0.0507041 -0.365756)
(0.0775341 0.049358 -0.490708)
(0.103209 0.0545312 -0.290303)
(0.0210894 0.049977 -0.186963)
(0.0124653 0.0195569 -0.0974814)
(0.628896 0.000264511 -0.000128663)
(0.628837 0.000254127 -0.000412636)
(0.652465 0.000553168 -0.000129412)
(0.628774 0.000235805 -0.000751202)
(0.652323 0.000574756 -0.000439321)
(0.651385 0.000766898 -0.00227912)
(0.628704 0.000210185 -0.00115617)
(0.652098 0.000579493 -0.000880662)
(0.651145 0.000835642 -0.00721737)
(0.974287 0.00185684 -0.000624881)
(0.628624 0.000178233 -0.00162902)
(0.651743 0.000564097 -0.00148724)
(0.650862 0.000892629 -0.0128203)
(0.968315 0.00213463 -0.00210915)
(0.716695 0.00712416 -0.849841)
(0.628526 0.000141641 -0.00216765)
(0.651195 0.000524022 -0.00231237)
(0.650499 0.000925543 -0.0191068)
(0.955685 0.00234575 -0.00503906)
(0.719586 0.00974843 -0.843818)
(0.680359 0.0181104 -0.910022)
(0.127873 0.0125452 -0.631624)
(0.628396 0.000101259 -0.00276688)
(0.650378 0.000461476 -0.00341233)
(0.65 0.000903271 -0.0258055)
(0.936029 0.00249087 -0.0096618)
(0.716635 0.0142258 -0.817626)
(0.133949 0.0159692 -0.62443)
(0.573417 0.0555606 -0.788585)
(0.138 0.0281846 -0.687945)
(0.0827868 0.0186757 -0.38814)
(0.628209 6.09557e-05 -0.00341828)
(0.649213 0.000369466 -0.00481914)
(0.649245 0.000776983 -0.0325609)
(0.909492 0.00235652 -0.0162743)
(0.709479 0.0202629 -0.779198)
(0.14739 0.0219349 -0.607946)
(0.0797876 0.0244341 -0.38731)
(0.46914 0.112777 -0.69492)
(0.15134 0.0699184 -0.716698)
(0.107514 0.0445284 -0.412555)
(0.0189613 0.0213991 -0.224471)
(0.62794 1.67432e-05 -0.00410453)
(0.647624 0.000276701 -0.0065349)
(0.648121 0.000411787 -0.0390635)
(0.877392 0.00219663 -0.0251839)
(0.699638 0.0250441 -0.726495)
(0.167445 0.028883 -0.577182)
(0.0819788 0.0305236 -0.374347)
(0.0210094 0.0256663 -0.217285)
(0.354959 0.135136 -0.603999)
(0.140604 0.0920621 -0.721989)
(0.144976 0.0818613 -0.40527)
(0.0238171 0.0429396 -0.231446)
(0.0133899 0.0182326 -0.113947)
(0.627551 -3.30066e-06 -0.00479829)
(0.645561 0.000117639 -0.00849365)
(0.64634 4.29538e-05 -0.0450966)
(0.842029 0.001067 -0.0360999)
(0.68792 0.0109129 -0.660847)
(0.192893 0.0146214 -0.534189)
(0.0894162 0.0176292 -0.347611)
(0.0241817 0.0177908 -0.196746)
(0.012522 0.0146015 -0.100187)
(0.0668085 0.0388169 -0.458255)
(0.130273 0.042216 -0.320527)
(0.106032 0.0357343 -0.246106)
(0.0206765 0.0298911 -0.157423)
(0.0134026 0.0273555 -0.0951393)
(0.00343089 0.00955051 -0.0450905)
(0.628949 0.000266883 -0.000128633)
(0.628894 0.000264513 -0.000412609)
(0.65253 0.000519073 -0.000129902)
(0.628832 0.000254123 -0.000751357)
(0.652397 0.000553097 -0.000441102)
(0.6516 0.000692302 -0.00228042)
(0.628761 0.000235766 -0.00115679)
(0.652179 0.000574567 -0.000884141)
(0.651399 0.000766543 -0.00722465)
(0.9747 0.00157021 -0.000626175)
(0.628678 0.000210036 -0.00163053)
(0.65183 0.000579078 -0.00149238)
(0.651148 0.000834187 -0.012842)
(0.968976 0.00185843 -0.00211205)
(0.71711 0.00452569 -0.850061)
(0.628575 0.000177828 -0.00217032)
(0.651283 0.000563292 -0.00231939)
(0.650809 0.000887811 -0.0191584)
(0.956737 0.00213966 -0.00504785)
(0.720166 0.00608076 -0.844504)
(0.68063 0.0110487 -0.910021)
(0.1267 0.00874197 -0.631857)
(0.628436 0.000140721 -0.0027711)
(0.650462 0.000522814 -0.00341884)
(0.650308 0.000911566 -0.0259115)
(0.937657 0.00235606 -0.00967177)
(0.717418 0.0087037 -0.819598)
(0.132333 0.0106891 -0.625058)
(0.572742 0.0332123 -0.784852)
(0.134993 0.0187347 -0.68735)
(0.080958 0.0120372 -0.387765)
(0.628242 9.96607e-05 -0.00342293)
(0.649283 0.000459693 -0.004827)
(0.649544 0.000867626 -0.0327482)
(0.911915 0.00250031 -0.0163567)
(0.710388 0.0129314 -0.784574)
(0.145178 0.0140656 -0.610565)
(0.0780621 0.0153664 -0.388876)
(0.477252 0.0771186 -0.687795)
(0.146445 0.0473419 -0.711267)
(0.105184 0.0284522 -0.41237)
(0.0168933 0.0140406 -0.224733)
(0.627963 5.87425e-05 -0.00410895)
(0.647668 0.000368029 -0.00653709)
(0.64835 0.00070413 -0.0393132)
(0.880268 0.00235782 -0.0252438)
(0.700255 0.0176621 -0.739122)
(0.16467 0.0191709 -0.588397)
(0.0801993 0.020306 -0.38495)
(0.0191617 0.0174771 -0.22447)
(0.416121 0.119807 -0.651332)
(0.156234 0.0807111 -0.753675)
(0.152623 0.0681792 -0.42002)
(0.0216369 0.0318412 -0.238825)
(0.0127894 0.0135638 -0.118217)
(0.627568 1.51067e-05 -0.00479881)
(0.645555 0.00027642 -0.00849576)
(0.646568 0.000301633 -0.0453283)
(0.844569 0.00217315 -0.0362663)
(0.688029 0.0195726 -0.680946)
(0.189689 0.0236575 -0.556051)
(0.0875712 0.0249631 -0.370692)
(0.0227763 0.0211271 -0.216535)
(0.012684 0.0153599 -0.114201)
(0.136428 0.0894992 -0.726402)
(0.308626 0.129716 -0.562449)
(0.169303 0.0816296 -0.407496)
(0.0298937 0.0537876 -0.230221)
(0.0165396 0.0251374 -0.120581)
(0.00294013 0.00926017 -0.0534203)
(0.627028 -2.97364e-06 -0.00544878)
(0.642922 0.000115837 -0.0105727)
(0.643914 -5.01998e-06 -0.0506053)
(0.807211 0.00103559 -0.0486278)
(0.674066 0.00759082 -0.614138)
(0.218511 0.0106899 -0.515634)
(0.0995656 0.0124676 -0.34792)
(0.0280413 0.0124321 -0.198922)
(0.0132134 0.0105252 -0.102385)
(0.00372162 0.00724703 -0.0464144)
(0.103525 0.0276219 -0.219703)
(0.0597663 0.0328113 -0.437593)
(0.0857148 0.0323763 -0.269786)
(0.0194007 0.0176639 -0.129411)
(0.0144196 0.0152292 -0.077805)
(0.00315022 0.0130582 -0.0438215)
(0.00185811 0.004081 -0.0187633)
(0.628998 0.000261751 -0.00012859)
(0.628947 0.000266888 -0.000412526)
(0.652585 0.000476397 -0.0001303)
(0.628888 0.000264517 -0.000751352)
(0.652462 0.000519021 -0.000442652)
(0.651775 0.000615414 -0.0022811)
(0.628819 0.000254111 -0.00115709)
(0.652253 0.000552947 -0.000887334)
(0.651614 0.000692112 -0.00722884)
(0.974952 0.00129434 -0.000627366)
(0.628735 0.000235689 -0.00163146)
(0.65191 0.0005742 -0.00149774)
(0.651403 0.000765725 -0.0128552)
(0.969388 0.00157164 -0.00211642)
(0.717411 0.0029614 -0.85017)
(0.628628 0.00020978 -0.00217229)
(0.651369 0.000578313 -0.00232688)
(0.651095 0.000831395 -0.0191909)
(0.957394 0.00186315 -0.00505603)
(0.720593 0.00389008 -0.84484)
(0.680968 0.00693697 -0.910017)
(0.12603 0.00616228 -0.632079)
(0.628485 0.000177215 -0.00277423)
(0.650548 0.000561839 -0.00342885)
(0.650617 0.000879533 -0.0259806)
(0.938691 0.00214942 -0.00969393)
(0.718009 0.00548801 -0.820467)
(0.131373 0.00747727 -0.625432)
(0.572315 0.0201637 -0.782986)
(0.133148 0.0129882 -0.68726)
(0.0793663 0.00789382 -0.387281)
(0.628283 0.000139505 -0.00342724)
(0.649362 0.000520525 -0.00483729)
(0.649851 0.000889749 -0.0328771)
(0.91347 0.00237068 -0.0163923)
(0.711141 0.00807628 -0.786858)
(0.143801 0.00949773 -0.611534)
(0.0765156 0.00989488 -0.388851)
(0.47588 0.0480447 -0.677083)
(0.14129 0.0322243 -0.707424)
(0.102514 0.0184559 -0.411134)
(0.0150333 0.00928629 -0.22399)
(0.627995 9.78644e-05 -0.0041129)
(0.647729 0.000456152 -0.00654939)
(0.648643 0.000817788 -0.0395157)
(0.882433 0.00250678 -0.0253711)
(0.70105 0.011858 -0.744761)
(0.162698 0.0128179 -0.591605)
(0.0785993 0.0129398 -0.387039)
(0.0174045 0.0113158 -0.225055)
(0.428124 0.0868521 -0.64603)
(0.153012 0.0617001 -0.747949)
(0.150799 0.048329 -0.417515)
(0.0187232 0.0215353 -0.238398)
(0.0118583 0.00939022 -0.118381)
(0.62759 5.68494e-05 -0.00480142)
(0.645587 0.000363959 -0.00850388)
(0.646791 0.000616273 -0.0455582)
(0.846825 0.00234538 -0.0363741)
(0.68851 0.0151191 -0.691674)
(0.187207 0.016893 -0.565923)
(0.0857442 0.0171713 -0.38034)
(0.0210562 0.014226 -0.223336)
(0.0120115 0.0110469 -0.118426)
(0.157766 0.0842919 -0.775821)
(0.376357 0.122893 -0.621932)
(0.187024 0.079684 -0.443352)
(0.0293586 0.048276 -0.241256)
(0.0161537 0.01999 -0.125108)
(0.00214905 0.00721408 -0.0555973)
(0.627044 1.4935e-05 -0.00544654)
(0.64291 0.000271613 -0.0105833)
(0.644129 0.000200514 -0.0507484)
(0.808816 0.00212384 -0.0488445)
(0.674148 0.0146173 -0.628347)
(0.215892 0.0189545 -0.532104)
(0.0975044 0.0201878 -0.366066)
(0.0264499 0.0171457 -0.214945)
(0.0128404 0.0126492 -0.114156)
(0.00318175 0.00783943 -0.0535334)
(0.176618 0.0783598 -0.402693)
(0.132193 0.0872778 -0.72639)
(0.246303 0.118536 -0.509621)
(0.0351616 0.0517138 -0.226869)
(0.0222643 0.030856 -0.117443)
(0.00284344 0.0126085 -0.0564629)
(0.0018874 0.00402815 -0.0223668)
(0.626341 -1.73271e-06 -0.00599055)
(0.639725 0.000111227 -0.0125993)
(0.640434 -3.61331e-05 -0.054896)
(0.770727 0.000981727 -0.0615315)
(0.658136 0.00495938 -0.560667)
(0.246656 0.00774394 -0.493297)
(0.112821 0.00896012 -0.346362)
(0.0336553 0.00874477 -0.200538)
(0.014701 0.00742803 -0.104142)
(0.00424887 0.0053003 -0.0475233)
(0.00191271 0.00312058 -0.0193456)
(0.0185099 0.0129385 -0.115164)
(0.100641 0.0231859 -0.203661)
(0.0507198 0.0256703 -0.410312)
(0.0388785 0.0210378 -0.202159)
(0.0143879 0.00861825 -0.0614054)
(0.00222456 0.00682946 -0.035436)
(0.00189463 0.00552177 -0.0181654)
(0.000471612 0.0015734 -0.00713722)
(0.62904 0.000250106 -0.000128544)
(0.628995 0.000261756 -0.0004124)
(0.652629 0.000428617 -0.000130612)
(0.628941 0.000266897 -0.000751242)
(0.652516 0.00047636 -0.000443904)
(0.65191 0.000538527 -0.00228141)
(0.628875 0.000264521 -0.00115714)
(0.652317 0.000518911 -0.000890101)
(0.651788 0.00061532 -0.00723109)
(0.975097 0.00104751 -0.000628297)
(0.628793 0.00025408 -0.00163196)
(0.651984 0.000552658 -0.00150264)
(0.651617 0.000691669 -0.0128629)
(0.969638 0.00129558 -0.00212017)
(0.717607 0.00198364 -0.850228)
(0.628685 0.000235548 -0.00217357)
(0.651449 0.000573531 -0.00233456)
(0.651349 0.000764148 -0.0192108)
(0.957803 0.00157577 -0.00506536)
(0.720886 0.0025614 -0.845015)
(0.681283 0.00448907 -0.910013)
(0.125632 0.00433643 -0.632235)
(0.628538 0.000209382 -0.00277661)
(0.650633 0.000576957 -0.00343937)
(0.650903 0.000826583 -0.0260245)
(0.93934 0.00187213 -0.00971231)
(0.718434 0.00353748 -0.820893)
(0.130824 0.00528748 -0.625717)
(0.57239 0.0125625 -0.782124)
(0.132096 0.00911026 -0.687358)
(0.0780558 0.00519144 -0.386871)
(0.62833 0.00017637 -0.00343061)
(0.649446 0.000559301 -0.00485122)
(0.650158 0.000866484 -0.0329626)
(0.914474 0.00216325 -0.0164376)
(0.711719 0.0051594 -0.787899)
(0.142989 0.00667905 -0.61205)
(0.0751997 0.00650032 -0.388542)
(0.474392 0.0295638 -0.670359)
(0.137901 0.0223197 -0.705882)
(0.100101 0.0120986 -0.410201)
(0.0134876 0.00626825 -0.223264)
(0.628035 0.000138057 -0.00411688)
(0.647803 0.000516409 -0.00656467)
(0.648946 0.000858377 -0.039661)
(0.883881 0.00238463 -0.0254489)
(0.70175 0.00760658 -0.747299)
(0.161495 0.00877935 -0.592902)
(0.0772601 0.0083697 -0.387368)
(0.0158953 0.00741137 -0.224548)
(0.426614 0.0554098 -0.631833)
(0.146634 0.0440636 -0.739657)
(0.146721 0.0325409 -0.413717)
(0.0158963 0.0144912 -0.237066)
(0.0109083 0.00635568 -0.117876)
(0.627621 9.61297e-05 -0.00480419)
(0.645639 0.000449788 -0.00852158)
(0.647074 0.000754138 -0.0457591)
(0.848671 0.00249888 -0.0365601)
(0.689196 0.0107394 -0.697291)
(0.185465 0.0118907 -0.569581)
(0.0842499 0.0112793 -0.382916)
(0.0195512 0.00917124 -0.224257)
(0.0111914 0.0074856 -0.118741)
(0.156326 0.0676952 -0.772984)
(0.391723 0.0930762 -0.618725)
(0.188026 0.0635328 -0.444256)
(0.0254232 0.0366862 -0.239923)
(0.0149304 0.0143736 -0.124985)
(0.00139509 0.00526483 -0.055691)
(0.627065 5.56947e-05 -0.00544724)
(0.642933 0.000356002 -0.0105976)
(0.644342 0.000521078 -0.0509393)
(0.810485 0.0023028 -0.0490176)
(0.674545 0.0125251 -0.637102)
(0.213802 0.0147708 -0.540515)
(0.0957649 0.0147306 -0.374559)
(0.0248773 0.0116925 -0.221116)
(0.0121246 0.00887065 -0.11814)
(0.00250597 0.00588113 -0.0556691)
(0.199908 0.0831233 -0.454831)
(0.157661 0.0864827 -0.789175)
(0.319634 0.123759 -0.583575)
(0.0385647 0.0557429 -0.252961)
(0.0234488 0.0299024 -0.12444)
(0.00177073 0.0105323 -0.0588216)
(0.00166288 0.00321773 -0.0233027)
(0.626356 1.63111e-05 -0.00598645)
(0.639711 0.000261553 -0.0126162)
(0.640629 0.000121036 -0.0549615)
(0.771649 0.00202837 -0.0618144)
(0.658235 0.0103444 -0.570017)
(0.244759 0.0147373 -0.505065)
(0.110967 0.0160183 -0.360075)
(0.0321322 0.0137335 -0.2131)
(0.0140331 0.0102165 -0.113707)
(0.00369812 0.00647161 -0.0535255)
(0.00184718 0.00341959 -0.0224354)
(0.0377546 0.0479236 -0.223293)
(0.179362 0.0751735 -0.396802)
(0.124291 0.0825003 -0.720339)
(0.160863 0.0954698 -0.43015)
(0.0263868 0.0286016 -0.111333)
(0.0022363 0.0151925 -0.0546081)
(0.00219172 0.0054478 -0.023577)
(0.000275663 0.00158021 -0.00854247)
(0.636069 0.000104175 -0.0143553)
(0.635846 -4.92912e-05 -0.0576361)
(0.734273 0.000898947 -0.0734444)
(0.640487 0.00300424 -0.502392)
(0.275986 0.00545711 -0.466928)
(0.12869 0.00640177 -0.342252)
(0.0411162 0.0062182 -0.201411)
(0.0171088 0.00521874 -0.105663)
(0.00507669 0.00377836 -0.0484387)
(0.00206804 0.00229816 -0.0198435)
(0.000529861 0.00120815 -0.00736014)
(0.0140701 0.00608297 -0.0525468)
(0.0180089 0.0106063 -0.10777)
(0.0954273 0.0183268 -0.184772)
(0.0386893 0.0164246 -0.361541)
(0.00723081 0.0106278 -0.127677)
(0.000948105 0.00368275 -0.0275832)
(0.00177097 0.00281259 -0.014543)
(0.000394041 0.00211662 -0.00690556)
(9.19147e-05 0.000578073 -0.00259398)
(0.629076 0.000233258 -0.000128497)
(0.629038 0.000250112 -0.000412262)
(0.652664 0.000378671 -0.000130839)
(0.62899 0.000261768 -0.000751048)
(0.652561 0.000428592 -0.000444885)
(0.652012 0.000463869 -0.00228148)
(0.628928 0.000266911 -0.00115702)
(0.652372 0.000476285 -0.000892327)
(0.651924 0.000538488 -0.00723211)
(0.975173 0.000835704 -0.000628883)
(0.628849 0.00026452 -0.00163211)
(0.652048 0.0005187 -0.00150686)
(0.651792 0.000615095 -0.0128671)
(0.969784 0.00104856 -0.00212298)
(0.717718 0.00135257 -0.850255)
(0.628743 0.000254018 -0.0021743)
(0.651522 0.000552132 -0.00234152)
(0.651564 0.000690812 -0.0192224)
(0.958052 0.00129911 -0.00507285)
(0.721068 0.00172559 -0.845112)
(0.681526 0.00297512 -0.910014)
(0.125371 0.0030229 -0.632318)
(0.628594 0.000235318 -0.00277822)
(0.650712 0.000572364 -0.00344991)
(0.651156 0.00076143 -0.0260514)
(0.939745 0.00158355 -0.00973007)
(0.718718 0.00234369 -0.821116)
(0.130496 0.00373194 -0.625906)
(0.572683 0.008068 -0.781745)
(0.131477 0.00638136 -0.687459)
(0.0770093 0.00339525 -0.386511)
(0.628383 0.000208814 -0.00343328)
(0.649528 0.000574638 -0.00486558)
(0.650442 0.00081898 -0.0330173)
(0.915109 0.00188502 -0.0164738)
(0.712132 0.00335424 -0.788411)
(0.142524 0.00474017 -0.612398)
(0.0741218 0.00428582 -0.388222)
(0.47394 0.0184861 -0.666704)
(0.135951 0.015559 -0.705337)
(0.0980978 0.00793685 -0.409552)
(0.0122725 0.0042811 -0.22271)
(0.628082 0.000175307 -0.00412024)
(0.647882 0.000555034 -0.00658348)
(0.649249 0.000847456 -0.0397597)
(0.884837 0.00217746 -0.0255303)
(0.702299 0.00494031 -0.748507)
(0.160786 0.0062185 -0.593568)
(0.076145 0.00552451 -0.387243)
(0.0146673 0.0049878 -0.223954)
(0.424299 0.0344938 -0.621701)
(0.141929 0.031013 -0.734984)
(0.142643 0.0215454 -0.411265)
(0.0134731 0.00983669 -0.235982)
(0.010028 0.00419142 -0.117329)
(0.62766 0.000136515 -0.00480747)
(0.645706 0.000509507 -0.00854272)
(0.64737 0.000816705 -0.0459116)
(0.84997 0.0023884 -0.036697)
(0.689832 0.00712828 -0.699999)
(0.184402 0.00831309 -0.571179)
(0.0830543 0.00739043 -0.383595)
(0.018318 0.00596381 -0.223997)
(0.0104129 0.00498113 -0.118361)
(0.149837 0.0493587 -0.763103)
(0.390524 0.0607005 -0.602895)
(0.183729 0.0453032 -0.437941)
(0.0206961 0.0260068 -0.236966)
(0.0135266 0.00997483 -0.124175)
(0.000738789 0.00375457 -0.0554282)
(0.627095 9.47601e-05 -0.0054486)
(0.642976 0.000439508 -0.010621)
(0.64461 0.000680034 -0.0511222)
(0.811973 0.00246176 -0.0492704)
(0.675126 0.00946899 -0.642388)
(0.212303 0.0110125 -0.544417)
(0.0943699 0.0101358 -0.377524)
(0.0235666 0.00763194 -0.222374)
(0.0113982 0.00590101 -0.118623)
(0.00189256 0.0041869 -0.0558228)
(0.203105 0.070042 -0.460452)
(0.157958 0.0717778 -0.789116)
(0.339927 0.0999955 -0.584463)
(0.0353241 0.0482496 -0.255331)
(0.0220965 0.0242282 -0.124254)
(0.000660139 0.00800307 -0.0588138)
(0.0013794 0.00242527 -0.0233372)
(0.626376 5.55338e-05 -0.00598551)
(0.639727 0.00034337 -0.0126359)
(0.640826 0.000428842 -0.0551038)
(0.772805 0.00221455 -0.0620555)
(0.658563 0.0099468 -0.57682)
(0.243112 0.012644 -0.511988)
(0.109403 0.0126593 -0.367312)
(0.0307277 0.00977079 -0.218519)
(0.0133103 0.00711814 -0.117314)
(0.00312837 0.00469729 -0.0555304)
(0.00163999 0.00262672 -0.0233534)
(0.0438921 0.0572744 -0.260601)
(0.206706 0.0845689 -0.459985)
(0.155086 0.088145 -0.800746)
(0.233873 0.1155 -0.522083)
(0.0302263 0.0338529 -0.126975)
(0.000930281 0.0155159 -0.0583262)
(0.0019271 0.00466971 -0.024591)
(1.58188e-05 0.0012918 -0.00891403)
(0.636055 0.000246684 -0.0143758)
(0.636016 6.93077e-05 -0.0576465)
(0.734747 0.00187587 -0.0737791)
(0.640591 0.00690803 -0.508086)
(0.274764 0.0110831 -0.474867)
(0.127205 0.0123627 -0.352096)
(0.0398152 0.0108215 -0.210884)
(0.016354 0.00811421 -0.113181)
(0.00455431 0.00522282 -0.0533313)
(0.00193548 0.00282736 -0.022457)
(0.000359004 0.00134312 -0.00856591)
(0.0280602 0.0254861 -0.105772)
(0.0393619 0.0449683 -0.220578)
(0.180194 0.0694038 -0.387356)
(0.108795 0.0707908 -0.694533)
(0.0733575 0.06028 -0.319827)
(0.000877649 0.013555 -0.0509984)
(0.00257395 0.00649453 -0.0225813)
(0.000142638 0.00213105 -0.00900787)
(-0.000103705 0.00059088 -0.00311375)
(0.632129 9.5533e-05 -0.0156269)
(0.630269 -4.80003e-05 -0.0586034)
(0.699546 0.000790069 -0.0829796)
(0.621614 0.00167338 -0.442014)
(0.304866 0.00372876 -0.436488)
(0.146697 0.00445799 -0.334936)
(0.0504501 0.00441708 -0.20121)
(0.0205094 0.0036814 -0.106862)
(0.00626627 0.0026649 -0.0492545)
(0.00235493 0.00164611 -0.0202628)
(0.000622624 0.000893434 -0.00755166)
(0.000129788 0.000444801 -0.00267579)
(0.000169472 0.00252612 -0.0235488)
(0.0138452 0.00494468 -0.0479276)
(0.0173759 0.00808764 -0.0993431)
(0.0839479 0.0124133 -0.158287)
(0.0264285 0.00777492 -0.283298)
(-0.00266625 0.00401543 -0.0695054)
(0.00141527 0.00149738 -0.0111471)
(0.000149519 0.00106109 -0.00552068)
(2.36201e-05 0.000776151 -0.00250826)
(-0.000336177 0.00021114 -0.000930513)
(0.629105 0.000212752 -0.000128451)
(0.629073 0.000233263 -0.000412118)
(0.652689 0.000329008 -0.000131004)
(0.629032 0.000250123 -0.000750824)
(0.652595 0.000378657 -0.000445596)
(0.652084 0.000393348 -0.00228141)
(0.628977 0.000261787 -0.00115677)
(0.652417 0.000428545 -0.000894058)
(0.652025 0.000463859 -0.00723238)
(0.975201 0.00065969 -0.000629177)
(0.628902 0.00026693 -0.00163202)
(0.652103 0.000476143 -0.00151024)
(0.651927 0.000538389 -0.012869)
(0.969859 0.000836579 -0.00212467)
(0.717765 0.000930137 -0.85026)
(0.628799 0.00026451 -0.00217459)
(0.651586 0.000518319 -0.00234748)
(0.651738 0.000614659 -0.0192287)
(0.958196 0.00105151 -0.00507824)
(0.721165 0.0011834 -0.845163)
(0.681687 0.0020068 -0.910012)
(0.125177 0.00208693 -0.632345)
(0.628652 0.000253906 -0.0027792)
(0.650785 0.000551222 -0.00345939)
(0.651371 0.000689343 -0.0260671)
(0.939992 0.00130573 -0.00974371)
(0.718891 0.00158756 -0.821237)
(0.13028 0.00260859 -0.626009)
(0.572995 0.00530985 -0.781604)
(0.131075 0.00443043 -0.687515)
(0.0761946 0.00219366 -0.386193)
(0.628439 0.000234973 -0.00343518)
(0.649606 0.000570399 -0.00487965)
(0.650695 0.000757153 -0.0330509)
(0.915508 0.00159484 -0.0165056)
(0.712408 0.00223676 -0.788677)
(0.142246 0.00335699 -0.61262)
(0.0732608 0.00281105 -0.387912)
(0.474072 0.0118897 -0.664797)
(0.134816 0.0108316 -0.705141)
(0.096499 0.00517465 -0.409055)
(0.0113511 0.00294077 -0.222285)
(0.628134 0.000208064 -0.00412306)
(0.647962 0.000570819 -0.00660252)
(0.649531 0.000807856 -0.0398236)
(0.885449 0.0018992 -0.0255947)
(0.702696 0.00324653 -0.749106)
(0.16038 0.00443213 -0.593983)
(0.0752364 0.00365872 -0.387018)
(0.0137108 0.00340828 -0.223474)
(0.423318 0.0217058 -0.615862)
(0.139155 0.0216809 -0.732644)
(0.139187 0.0141454 -0.4098)
(0.0115431 0.00671818 -0.23522)
(0.00925331 0.0026306 -0.116862)
(0.627706 0.000174081 -0.00481056)
(0.64578 0.000548224 -0.0085671)
(0.647666 0.00082164 -0.0460189)
(0.850856 0.00218484 -0.0368281)
(0.690343 0.00473029 -0.701349)
(0.183773 0.00594744 -0.572006)
(0.0820743 0.00492316 -0.383662)
(0.0173378 0.00400787 -0.223544)
(0.00971379 0.00325192 -0.117894)
(0.144633 0.0351299 -0.756643)
(0.387666 0.0382119 -0.590606)
(0.178497 0.0307421 -0.432678)
(0.0163357 0.0179952 -0.234702)
(0.0121672 0.00667283 -0.123412)
(0.000186045 0.00260932 -0.0551353)
(0.627132 0.000135062 -0.00545094)
(0.643034 0.000498839 -0.0106481)
(0.644892 0.000765542 -0.0512717)
(0.813089 0.00236905 -0.0494782)
(0.675689 0.00655893 -0.645142)
(0.211373 0.00791333 -0.546271)
(0.0932743 0.00679433 -0.378532)
(0.0225317 0.00496787 -0.22237)
(0.0107604 0.00385233 -0.118378)
(0.00137519 0.00292687 -0.0556143)
(0.199281 0.0514232 -0.45367)
(0.151609 0.0532071 -0.778662)
(0.339817 0.0678596 -0.567458)
(0.0295274 0.0368016 -0.251284)
(0.0198876 0.0178856 -0.122752)
(-0.000350333 0.00586667 -0.058422)
(0.00109886 0.00180332 -0.0232222)
(0.626404 9.39917e-05 -0.00598553)
(0.63976 0.000424594 -0.0126641)
(0.641073 0.000601546 -0.0552567)
(0.773935 0.00238085 -0.0623728)
(0.659044 0.00805579 -0.581492)
(0.241876 0.0100248 -0.515889)
(0.108115 0.00923056 -0.370504)
(0.0295667 0.00659759 -0.220073)
(0.012659 0.00470112 -0.117975)
(0.00263653 0.00325912 -0.055755)
(0.00140497 0.00192984 -0.0234125)
(0.0417808 0.053026 -0.267419)
(0.211796 0.0739895 -0.46931)
(0.158373 0.0769123 -0.805397)
(0.260447 0.10387 -0.533744)
(0.0297312 0.0314549 -0.129703)
(-0.000786415 0.0132757 -0.0584392)
(0.00152195 0.00366468 -0.024585)
(-0.000242909 0.0010019 -0.00893482)
(0.636066 0.000326165 -0.0143991)
(0.636191 0.00034912 -0.0577412)
(0.735495 0.00207182 -0.0740744)
(0.640856 0.0075349 -0.513077)
(0.273561 0.0105044 -0.480351)
(0.125866 0.0107309 -0.358049)
(0.0385968 0.00826524 -0.215495)
(0.0156625 0.00578002 -0.116345)
(0.0040775 0.00372088 -0.0551409)
(0.00174583 0.0020942 -0.0233196)
(0.000153485 0.00105525 -0.00892845)
(0.0336226 0.0339372 -0.127337)
(0.0475108 0.0574768 -0.264861)
(0.213203 0.0847422 -0.464412)
(0.145389 0.085607 -0.802255)
(0.130793 0.0888714 -0.425187)
(-0.000348514 0.0170662 -0.0590121)
(0.00238974 0.00680649 -0.0241612)
(-0.000250849 0.00186961 -0.00941547)
(-0.000336024 0.000492724 -0.00325732)
(0.632117 0.000228457 -0.0156486)
(0.63041 4.38442e-05 -0.0585827)
(0.699754 0.00167074 -0.0833337)
(0.621703 0.00435513 -0.445213)
(0.30418 0.00807557 -0.441564)
(0.145596 0.00922987 -0.341603)
(0.0494305 0.00833884 -0.208003)
(0.0198121 0.00633447 -0.112548)
(0.00580521 0.00413321 -0.0531085)
(0.0021874 0.00228138 -0.0223994)
(0.000478 0.00111142 -0.00857223)
(-2.08322e-05 0.000502258 -0.00312182)
(-0.000164673 0.0116568 -0.0481084)
(0.0288775 0.0234191 -0.102164)
(0.0413441 0.0405084 -0.216543)
(0.173939 0.0574003 -0.369592)
(0.0854833 0.0513386 -0.624812)
(0.0179344 0.0269417 -0.201481)
(0.00245242 0.00564863 -0.0206647)
(-0.000266725 0.00253124 -0.00863322)
(-0.000283115 0.00079659 -0.00328456)
(-0.000789041 0.000225545 -0.00112512)
(0.628131 8.63133e-05 -0.0162561)
(0.624002 -3.79825e-05 -0.0577359)
(0.667969 0.0006659 -0.0890463)
(0.602218 0.000850356 -0.382481)
(0.331625 0.00248802 -0.402309)
(0.166324 0.00300366 -0.323871)
(0.0616234 0.00308401 -0.199577)
(0.0249331 0.00259262 -0.107572)
(0.00786929 0.0018782 -0.0499327)
(0.0028021 0.00116296 -0.0206418)
(0.000759197 0.000642201 -0.00771389)
(0.00017873 0.000329646 -0.0027463)
(-0.000258336 0.00016304 -0.000959217)