/*--------------------------------*- C++ -*----------------------------------*\
  =========                 |
  \\      /  F ield         | OpenFOAM: The Open Source CFD Toolbox
   \\    /   O peration     | Website:  https://openfoam.org
    \\  /    A nd           | Version:  7
     \\/     M anipulation  |
\*---------------------------------------------------------------------------*/
FoamFile
{
    version     2.0;
    format      ascii;
    class       volScalarField;
    location    "100";
    object      p;
}
// * * * * * * * * * * * * * * * * * * * * * * * * * * * * * * * * * * * * * //

dimensions      [0 2 -2 0 0 0 0];

internalField   nonuniform List<scalar> 
44002
(
146.501
145.176
146.148
145.656
145.154
144.604
146.508
145.181
145.501
144.856
143.715
146.15
145.059
145.656
144.602
145.154
144.06
144.604
143.474
142.836
142.146
146.514
145.187
145.503
144.858
143.716
144.449
144.356
143.521
142.111
146.152
145.06
144.023
145.657
144.602
143.498
145.154
144.06
142.913
144.604
143.474
142.277
142.836
141.595
142.146
140.869
146.519
145.194
145.505
144.861
143.717
144.45
144.357
143.521
142.111
143.481
143.655
143.193
142.037
140.655
146.155
145.06
144.023
142.961
145.658
144.602
143.498
142.371
145.155
144.06
142.913
141.725
144.604
143.474
142.277
141.038
142.836
141.595
140.319
142.146
140.869
139.576
146.524
145.2
145.507
144.864
143.718
144.45
144.358
143.522
142.112
143.481
143.655
143.193
142.037
140.655
142.488
142.861
142.692
141.861
140.614
139.181
146.158
145.062
144.023
142.961
141.883
145.659
144.602
143.498
142.371
141.216
145.155
144.06
142.914
141.725
140.51
144.604
143.474
142.277
141.038
139.78
142.836
141.595
140.319
139.04
142.146
140.869
139.576
138.305
146.528
145.205
145.51
144.868
143.72
144.451
144.36
143.523
142.112
143.481
143.656
143.193
142.038
140.655
142.488
142.861
142.692
141.861
140.614
139.181
141.468
141.978
142.063
141.548
140.508
139.158
137.68
146.161
145.063
144.023
142.961
141.883
140.775
145.66
144.603
143.498
142.371
141.216
140.041
145.156
144.061
142.914
141.725
140.51
139.285
144.604
143.474
142.277
141.038
139.78
138.529
142.836
141.595
140.319
139.04
137.793
142.146
140.87
139.576
138.305
137.096
146.531
145.21
145.512
144.871
143.721
144.452
144.362
143.524
142.113
143.481
143.656
143.194
142.038
140.655
142.488
142.861
142.692
141.862
140.614
139.181
141.468
141.978
142.063
141.548
140.508
139.158
137.68
140.41
141.034
141.314
141.092
140.304
139.093
137.665
136.116
146.163
145.064
144.024
142.961
141.883
140.775
139.643
145.661
144.603
143.499
142.371
141.216
140.041
138.854
145.156
144.061
142.914
141.725
140.51
139.285
138.07
144.604
143.474
142.277
141.038
139.78
138.529
137.314
142.836
141.595
140.319
139.04
137.793
136.613
142.146
140.87
139.576
138.305
137.096
135.986
146.534
145.214
145.514
144.875
143.723
144.453
144.364
143.526
142.114
143.482
143.657
143.194
142.039
140.656
142.488
142.861
142.692
141.862
140.614
139.181
141.468
141.978
142.063
141.548
140.508
139.158
137.68
140.41
141.034
141.314
141.092
140.304
139.093
137.665
136.116
139.319
140.033
140.471
140.495
139.981
138.962
137.623
136.107
134.472
146.165
145.066
144.024
142.961
141.883
140.775
139.643
138.495
145.662
144.604
143.499
142.371
141.216
140.041
138.854
137.675
145.157
144.061
142.914
141.725
140.51
139.285
138.07
136.888
144.605
143.474
142.277
141.038
139.78
138.529
137.314
136.165
142.837
141.595
140.319
139.04
137.793
136.613
135.531
142.146
140.87
139.576
138.305
137.096
135.986
135.004
146.536
145.217
145.516
144.878
143.724
144.455
144.366
143.527
142.115
143.482
143.659
143.195
142.04
140.656
142.488
142.861
142.693
141.862
140.615
139.181
141.468
141.978
142.063
141.548
140.508
139.158
137.68
140.41
141.034
141.314
141.093
140.304
139.093
137.665
136.116
139.319
140.033
140.471
140.495
139.981
138.962
137.623
136.107
134.472
138.205
138.986
139.548
139.775
139.523
138.739
137.536
136.079
134.465
132.725
146.167
145.067
144.025
142.961
141.883
140.775
139.643
138.495
137.349
145.664
144.604
143.499
142.372
141.217
140.041
138.854
137.675
136.527
145.157
144.061
142.914
141.725
140.51
139.285
138.07
136.888
135.771
144.605
143.475
142.277
141.038
139.78
138.529
137.314
136.165
135.112
142.837
141.595
140.319
139.04
137.793
136.613
135.531
134.575
142.146
140.87
139.576
138.305
137.096
135.986
135.004
134.17
146.538
145.22
145.517
144.881
143.726
144.456
144.368
143.528
142.116
143.483
143.66
143.196
142.041
140.656
142.488
142.862
142.694
141.863
140.615
139.181
141.469
141.979
142.064
141.549
140.508
139.158
137.68
140.41
141.034
141.314
141.093
140.305
139.093
137.665
136.116
139.319
140.033
140.471
140.495
139.981
138.962
137.623
136.107
134.472
138.205
138.986
139.548
139.775
139.523
138.739
137.536
136.079
134.465
132.725
137.088
137.909
138.563
138.949
138.931
138.4
137.382
136.02
134.446
132.72
130.856
146.168
145.068
144.026
142.962
141.883
140.775
139.643
138.495
137.349
136.23
145.665
144.605
143.5
142.372
141.217
140.041
138.854
137.675
136.527
135.438
145.158
144.062
142.914
141.725
140.51
139.285
138.07
136.888
135.771
134.746
144.606
143.475
142.277
141.038
139.78
138.529
137.314
136.165
135.112
134.182
142.837
141.595
140.319
139.04
137.793
136.613
135.531
134.575
133.763
142.146
140.87
139.576
138.305
137.096
135.986
135.004
134.17
133.49
146.539
145.222
145.519
144.883
143.727
144.457
144.37
143.53
142.117
143.483
143.661
143.197
142.042
140.657
142.489
142.863
142.694
141.864
140.615
139.182
141.469
141.979
142.064
141.549
140.508
139.158
137.68
140.41
141.034
141.315
141.093
140.305
139.093
137.665
136.116
139.319
140.033
140.471
140.496
139.981
138.962
137.623
136.107
134.472
138.205
138.986
139.548
139.775
139.523
138.739
137.536
136.079
134.465
132.725
137.088
137.909
138.563
138.949
138.931
138.4
137.382
136.02
134.446
132.72
130.856
135.993
136.823
137.535
138.041
138.218
137.933
137.137
135.914
134.406
132.707
130.853
128.843
146.169
145.07
144.026
142.962
141.883
140.775
139.643
138.495
137.349
136.23
135.166
145.666
144.606
143.5
142.372
141.217
140.041
138.854
137.675
136.527
135.438
134.438
145.159
144.062
142.914
141.725
140.51
139.285
138.07
136.888
135.771
134.746
133.84
144.606
143.475
142.277
141.038
139.78
138.529
137.314
136.165
135.112
134.182
133.393
142.837
141.595
140.319
139.04
137.793
136.613
135.531
134.575
133.763
133.102
142.146
140.87
139.576
138.305
137.096
135.986
135.004
134.17
133.49
132.959
146.54
145.224
145.52
144.885
143.728
144.458
144.372
143.531
142.118
143.484
143.662
143.199
142.043
140.657
142.489
142.863
142.695
141.865
140.616
139.182
141.469
141.979
142.064
141.55
140.509
139.158
137.68
140.41
141.034
141.315
141.093
140.305
139.093
137.665
136.116
139.319
140.033
140.471
140.496
139.981
138.962
137.623
136.107
134.472
138.205
138.986
139.548
139.775
139.523
138.739
137.536
136.079
134.465
132.725
137.088
137.909
138.563
138.949
138.932
138.4
137.382
136.02
134.446
132.72
130.856
135.993
136.823
137.535
138.041
138.218
137.933
137.137
135.914
134.406
132.707
130.853
128.843
134.95
135.753
136.488
137.076
137.403
137.338
136.78
135.738
134.332
132.679
130.843
128.841
126.664
146.17
145.071
144.027
142.963
141.883
140.775
139.643
138.495
137.349
136.23
135.166
134.187
145.667
144.606
143.5
142.372
141.217
140.041
138.854
137.675
136.527
135.438
134.438
133.553
145.159
144.063
142.914
141.725
140.511
139.285
138.07
136.888
135.771
134.746
133.84
133.07
144.606
143.475
142.277
141.038
139.78
138.529
137.314
136.165
135.112
134.182
133.393
132.748
142.837
141.595
140.319
139.04
137.793
136.613
135.531
134.575
133.763
133.102
132.585
142.146
140.87
139.576
138.305
137.096
135.986
135.004
134.17
133.49
132.959
132.561
146.541
145.225
145.521
144.886
143.729
144.459
144.373
143.532
142.119
143.485
143.664
143.2
142.044
140.657
142.49
142.864
142.696
141.865
140.616
139.182
141.469
141.979
142.065
141.55
140.509
139.158
137.68
140.41
141.034
141.315
141.093
140.305
139.093
137.665
136.117
139.319
140.033
140.471
140.496
139.982
138.962
137.623
136.107
134.472
138.205
138.986
139.548
139.775
139.523
138.739
137.536
136.079
134.465
132.725
137.088
137.909
138.563
138.949
138.932
138.4
137.382
136.02
134.446
132.72
130.856
135.993
136.823
137.535
138.041
138.218
137.933
137.137
135.914
134.406
132.707
130.853
128.843
134.95
135.753
136.488
137.076
137.403
137.338
136.78
135.738
134.332
132.679
130.843
128.841
126.664
133.987
134.731
135.452
136.079
136.514
136.629
136.3
135.471
134.206
132.627
130.824
128.835
126.663
124.294
146.171
145.072
144.028
142.963
141.883
140.776
139.643
138.495
137.349
136.23
135.166
134.187
133.319
145.668
144.607
143.501
142.372
141.217
140.041
138.855
137.675
136.527
135.438
134.438
133.553
132.799
145.16
144.063
142.915
141.725
140.511
139.285
138.07
136.888
135.771
134.746
133.84
133.07
132.441
144.607
143.476
142.277
141.038
139.78
138.529
137.314
136.165
135.112
134.182
133.393
132.748
132.245
142.837
141.595
140.319
139.04
137.793
136.613
135.531
134.575
133.763
133.102
132.585
132.197
142.146
140.87
139.576
138.305
137.096
135.986
135.004
134.17
133.49
132.959
132.561
132.273
146.542
145.227
145.522
144.888
143.73
144.46
144.375
143.533
142.12
143.486
143.665
143.201
142.044
140.658
142.49
142.865
142.697
141.866
140.617
139.182
141.469
141.98
142.065
141.551
140.509
139.159
137.68
140.41
141.034
141.315
141.094
140.305
139.093
137.665
136.117
139.319
140.033
140.471
140.496
139.982
138.962
137.623
136.107
134.472
138.205
138.986
139.548
139.775
139.523
138.739
137.536
136.079
134.465
132.725
137.088
137.909
138.563
138.949
138.932
138.401
137.382
136.02
134.446
132.72
130.856
135.993
136.823
137.535
138.041
138.218
137.933
137.137
135.914
134.406
132.707
130.853
128.843
134.95
135.753
136.488
137.076
137.403
137.338
136.78
135.738
134.332
132.679
130.843
128.841
126.664
133.987
134.731
135.452
136.079
136.514
136.629
136.3
135.471
134.206
132.627
130.824
128.835
126.663
124.294
133.133
133.786
134.456
135.084
135.58
135.83
135.702
135.097
134.01
132.538
130.787
128.821
126.658
124.293
121.705
146.172
145.073
144.029
142.964
141.884
140.776
139.643
138.495
137.349
136.23
135.166
134.187
133.319
132.579
145.669
144.608
143.501
142.373
141.217
140.041
138.855
137.675
136.527
135.438
134.438
133.553
132.799
132.183
145.161
144.064
142.915
141.725
140.511
139.285
138.07
136.888
135.771
134.746
133.84
133.07
132.441
131.949
144.607
143.476
142.278
141.038
139.78
138.529
137.314
136.165
135.112
134.182
133.393
132.748
132.245
131.867
142.837
141.595
140.319
139.04
137.793
136.613
135.531
134.575
133.763
133.102
132.585
132.197
131.918
142.146
140.87
139.576
138.305
137.096
135.986
135.004
134.17
133.49
132.959
132.561
132.273
132.074
146.543
145.228
145.522
144.889
143.731
144.461
144.376
143.534
142.121
143.486
143.666
143.202
142.045
140.659
142.49
142.865
142.698
141.867
140.617
139.183
141.469
141.98
142.066
141.552
140.51
139.159
137.68
140.411
141.035
141.316
141.094
140.306
139.094
137.665
136.117
139.319
140.033
140.472
140.496
139.982
138.963
137.623
136.107
134.472
138.205
138.986
139.548
139.775
139.524
138.739
137.536
136.079
134.465
132.725
137.088
137.909
138.563
138.949
138.932
138.401
137.382
136.02
134.446
132.72
130.856
135.993
136.823
137.535
138.042
138.218
137.933
137.137
135.914
134.406
132.707
130.853
128.843
134.95
135.753
136.488
137.076
137.403
137.338
136.78
135.738
134.332
132.679
130.843
128.841
126.664
133.987
134.731
135.452
136.079
136.514
136.629
136.3
135.471
134.206
132.627
130.824
128.835
126.663
124.294
133.133
133.786
134.456
135.084
135.58
135.83
135.702
135.097
134.01
132.538
130.787
128.821
126.658
124.293
121.705
132.404
132.945
133.533
134.122
134.635
134.971
135.003
134.609
133.725
132.396
130.724
128.795
126.649
124.29
121.705
118.869
146.173
145.074
144.029
142.964
141.884
140.776
139.643
138.495
137.349
136.23
135.166
134.187
133.319
132.579
131.974
145.669
144.608
143.502
142.373
141.217
140.041
138.855
137.675
136.527
135.438
134.438
133.553
132.799
132.183
131.701
145.161
144.064
142.915
141.726
140.511
139.285
138.07
136.888
135.771
134.746
133.84
133.07
132.441
131.949
131.579
144.608
143.476
142.278
141.038
139.78
138.529
137.314
136.165
135.112
134.182
133.393
132.748
132.245
131.867
131.594
142.837
141.595
140.319
139.04
137.793
136.613
135.531
134.575
133.763
133.102
132.585
132.197
131.918
131.723
142.146
140.87
139.576
138.305
137.096
135.986
135.004
134.17
133.49
132.959
132.561
132.273
132.074
131.94
146.544
145.229
145.523
144.89
143.731
144.462
144.377
143.535
142.122
143.487
143.667
143.202
142.046
140.659
142.491
142.866
142.698
141.868
140.618
139.183
141.47
141.981
142.066
141.552
140.51
139.159
137.68
140.411
141.035
141.316
141.095
140.306
139.094
137.665
136.117
139.319
140.033
140.472
140.496
139.982
138.963
137.623
136.107
134.472
138.205
138.986
139.548
139.775
139.524
138.74
137.536
136.079
134.465
132.725
137.088
137.909
138.563
138.949
138.932
138.401
137.382
136.02
134.446
132.72
130.856
135.993
136.823
137.535
138.042
138.218
137.934
137.137
135.914
134.406
132.707
130.853
128.843
134.95
135.753
136.488
137.076
137.403
137.338
136.78
135.738
134.332
132.679
130.843
128.841
126.664
133.987
134.731
135.452
136.079
136.514
136.629
136.3
135.471
134.206
132.627
130.824
128.835
126.663
124.294
133.133
133.786
134.456
135.084
135.58
135.83
135.702
135.097
134.01
132.538
130.787
128.821
126.658
124.293
121.705
132.404
132.945
133.533
134.122
134.635
134.971
135.003
134.609
133.725
132.396
130.724
128.795
126.649
124.29
121.705
118.869
131.807
132.228
132.711
133.226
133.714
134.087
134.231
134.016
133.339
132.183
130.621
128.75
126.631
124.283
121.703
118.869
115.758
146.173
145.074
144.03
142.965
141.884
140.776
139.643
138.495
137.349
136.23
135.166
134.187
133.319
132.579
131.974
131.5
145.67
144.609
143.502
142.373
141.217
140.041
138.855
137.675
136.527
135.438
134.438
133.553
132.799
132.183
131.701
131.339
145.162
144.065
142.916
141.726
140.511
139.285
138.07
136.889
135.771
134.746
133.84
133.07
132.441
131.949
131.579
131.313
144.608
143.476
142.278
141.038
139.78
138.529
137.314
136.165
135.112
134.182
133.393
132.748
132.245
131.867
131.594
131.405
142.838
141.595
140.319
139.04
137.793
136.613
135.531
134.575
133.763
133.102
132.585
132.197
131.918
131.723
131.593
142.146
140.87
139.576
138.305
137.096
135.986
135.004
134.17
133.49
132.959
132.561
132.273
132.074
131.94
131.854
146.544
145.229
145.524
144.89
143.732
144.463
144.378
143.535
142.122
143.488
143.667
143.203
142.047
140.66
142.491
142.867
142.699
141.869
140.618
139.183
141.47
141.981
142.067
141.553
140.511
139.159
137.68
140.411
141.035
141.316
141.095
140.307
139.094
137.665
136.117
139.319
140.033
140.472
140.497
139.983
138.963
137.623
136.107
134.472
138.205
138.986
139.548
139.775
139.524
138.74
137.536
136.079
134.465
132.725
137.088
137.909
138.563
138.949
138.932
138.401
137.383
136.02
134.446
132.72
130.856
135.993
136.823
137.535
138.042
138.218
137.934
137.137
135.914
134.406
132.707
130.853
128.843
134.95
135.753
136.488
137.076
137.403
137.339
136.78
135.738
134.332
132.679
130.843
128.841
126.664
133.987
134.731
135.452
136.079
136.514
136.629
136.3
135.471
134.206
132.627
130.824
128.835
126.663
124.294
133.133
133.786
134.456
135.084
135.58
135.83
135.702
135.097
134.01
132.538
130.787
128.821
126.658
124.293
121.705
132.404
132.945
133.533
134.122
134.635
134.971
135.003
134.609
133.725
132.396
130.724
128.795
126.649
124.29
121.705
118.869
131.807
132.228
132.711
133.226
133.714
134.087
134.231
134.016
133.339
132.183
130.621
128.75
126.631
124.283
121.703
118.869
115.758
131.34
131.64
132.007
132.425
132.852
133.217
133.421
133.341
132.852
131.885
130.465
128.677
126.599
124.271
121.698
118.868
115.757
112.344
146.174
145.075
144.031
142.965
141.884
140.776
139.643
138.495
137.349
136.23
135.166
134.187
133.319
132.579
131.974
131.5
131.143
145.67
144.61
143.503
142.374
141.217
140.041
138.855
137.675
136.527
135.438
134.438
133.553
132.799
132.183
131.701
131.339
131.077
145.162
144.065
142.916
141.726
140.511
139.285
138.07
136.889
135.771
134.746
133.84
133.07
132.441
131.949
131.579
131.313
131.128
144.609
143.477
142.278
141.038
139.78
138.529
137.314
136.165
135.112
134.182
133.393
132.748
132.245
131.867
131.594
131.405
131.278
142.838
141.596
140.319
139.04
137.793
136.613
135.531
134.575
133.763
133.102
132.585
132.197
131.918
131.723
131.593
131.509
142.146
140.87
139.576
138.305
137.096
135.986
135.004
134.17
133.49
132.959
132.561
132.273
132.074
131.94
131.854
131.8
146.545
145.23
145.524
144.891
143.732
144.463
144.378
143.536
142.123
143.488
143.668
143.204
142.048
140.66
142.492
142.867
142.7
141.869
140.619
139.184
141.47
141.982
142.068
141.554
140.511
139.16
137.681
140.411
141.035
141.317
141.096
140.307
139.094
137.666
136.117
139.319
140.033
140.472
140.497
139.983
138.963
137.623
136.107
134.472
138.205
138.986
139.548
139.775
139.524
138.74
137.537
136.079
134.465
132.725
137.088
137.909
138.563
138.949
138.932
138.401
137.383
136.02
134.446
132.72
130.856
135.993
136.823
137.535
138.042
138.218
137.934
137.137
135.914
134.406
132.707
130.853
128.843
134.95
135.753
136.488
137.076
137.403
137.339
136.78
135.738
134.332
132.679
130.843
128.841
126.664
133.987
134.731
135.452
136.079
136.514
136.629
136.3
135.471
134.206
132.627
130.824
128.835
126.663
124.294
133.133
133.786
134.456
135.084
135.58
135.83
135.702
135.097
134.01
132.538
130.787
128.821
126.658
124.293
121.705
132.404
132.945
133.533
134.122
134.635
134.971
135.003
134.609
133.725
132.396
130.724
128.795
126.649
124.29
121.705
118.869
131.807
132.228
132.711
133.226
133.714
134.087
134.231
134.016
133.339
132.183
130.621
128.75
126.631
124.283
121.703
118.869
115.758
131.34
131.64
132.007
132.425
132.852
133.217
133.421
133.341
132.852
131.885
130.465
128.677
126.599
124.271
121.698
118.868
115.757
112.344
130.988
131.179
131.43
131.738
132.077
132.395
132.611
132.615
132.278
131.497
130.241
128.564
126.548
124.249
121.69
118.865
115.756
112.343
108.607
146.174
145.075
144.031
142.966
141.885
140.776
139.643
138.495
137.349
136.23
135.166
134.187
133.319
132.579
131.974
131.5
131.143
130.886
145.671
144.61
143.503
142.374
141.218
140.041
138.855
137.675
136.527
135.438
134.438
133.553
132.799
132.183
131.701
131.339
131.077
130.896
145.163
144.065
142.916
141.726
140.511
139.286
138.07
136.889
135.771
134.746
133.84
133.07
132.441
131.949
131.579
131.313
131.128
131.004
144.609
143.477
142.278
141.038
139.78
138.529
137.314
136.165
135.112
134.182
133.393
132.748
132.245
131.867
131.594
131.405
131.278
131.196
142.838
141.596
140.319
139.04
137.793
136.613
135.531
134.575
133.763
133.102
132.585
132.197
131.918
131.723
131.593
131.509
131.457
142.147
140.87
139.576
138.305
137.096
135.986
135.004
134.17
133.49
132.959
132.561
132.273
132.074
131.94
131.854
131.8
131.768
146.545
145.23
145.525
144.892
143.733
144.464
144.379
143.536
142.123
143.489
143.669
143.204
142.048
140.66
142.492
142.868
142.7
141.87
140.619
139.184
141.471
141.982
142.068
141.554
140.512
139.16
137.681
140.411
141.036
141.317
141.096
140.307
139.095
137.666
136.117
139.319
140.033
140.472
140.497
139.983
138.964
137.624
136.107
134.472
138.205
138.987
139.549
139.776
139.524
138.74
137.537
136.079
134.465
132.725
137.088
137.909
138.563
138.95
138.932
138.401
137.383
136.02
134.446
132.72
130.856
135.993
136.823
137.535
138.042
138.218
137.934
137.137
135.914
134.406
132.707
130.853
128.843
134.95
135.753
136.488
137.076
137.403
137.339
136.78
135.738
134.332
132.679
130.843
128.841
126.664
133.987
134.731
135.452
136.079
136.514
136.629
136.3
135.471
134.206
132.627
130.824
128.835
126.663
124.294
133.133
133.786
134.456
135.084
135.58
135.83
135.702
135.097
134.01
132.538
130.787
128.821
126.658
124.293
121.705
132.404
132.945
133.533
134.122
134.635
134.971
135.003
134.609
133.725
132.396
130.724
128.795
126.649
124.29
121.705
118.869
131.807
132.228
132.711
133.226
133.714
134.087
134.231
134.016
133.339
132.183
130.621
128.75
126.631
124.283
121.703
118.869
115.758
131.34
131.64
132.007
132.425
132.852
133.217
133.421
133.341
132.852
131.885
130.465
128.677
126.599
124.271
121.698
118.868
115.757
112.344
130.988
131.179
131.43
131.738
132.077
132.395
132.611
132.615
132.278
131.497
130.241
128.564
126.548
124.249
121.69
118.865
115.756
112.343
108.607
130.734
130.832
130.977
131.175
131.412
131.654
131.839
131.876
131.645
131.025
129.941
128.399
126.467
124.213
121.675
118.859
115.754
112.343
108.607
104.537
146.175
145.076
144.032
142.966
141.885
140.776
139.643
138.495
137.349
136.23
135.166
134.187
133.319
132.579
131.974
131.5
131.143
130.886
130.707
145.671
144.61
143.504
142.374
141.218
140.041
138.855
137.675
136.527
135.438
134.438
133.553
132.799
132.183
131.701
131.339
131.077
130.896
130.774
145.163
144.066
142.917
141.726
140.511
139.286
138.07
136.889
135.771
134.746
133.84
133.07
132.441
131.949
131.579
131.313
131.128
131.004
130.924
144.609
143.477
142.279
141.039
139.78
138.53
137.314
136.165
135.112
134.182
133.393
132.748
132.245
131.867
131.594
131.405
131.278
131.196
131.145
142.838
141.596
140.319
139.04
137.793
136.613
135.531
134.575
133.763
133.102
132.585
132.197
131.918
131.723
131.593
131.509
131.457
131.426
142.147
140.87
139.576
138.305
137.096
135.986
135.004
134.17
133.49
132.959
132.561
132.273
132.074
131.94
131.854
131.8
131.768
131.75
146.546
145.231
145.525
144.892
143.733
144.464
144.379
143.537
142.124
143.489
143.669
143.205
142.049
140.661
142.493
142.868
142.701
141.87
140.619
139.184
141.471
141.983
142.069
141.555
140.512
139.16
137.681
140.411
141.036
141.318
141.097
140.308
139.095
137.666
136.117
139.319
140.034
140.473
140.498
139.984
138.964
137.624
136.107
134.472
138.205
138.987
139.549
139.776
139.525
138.74
137.537
136.079
134.465
132.725
137.088
137.909
138.563
138.95
138.932
138.401
137.383
136.021
134.446
132.72
130.856
135.993
136.823
137.535
138.042
138.218
137.934
137.137
135.914
134.406
132.707
130.853
128.843
134.95
135.753
136.488
137.076
137.403
137.339
136.78
135.738
134.332
132.679
130.843
128.841
126.664
133.987
134.731
135.452
136.079
136.514
136.629
136.3
135.471
134.206
132.627
130.824
128.835
126.663
124.294
133.133
133.786
134.456
135.084
135.58
135.83
135.702
135.097
134.01
132.538
130.787
128.821
126.658
124.293
121.705
132.404
132.945
133.533
134.122
134.635
134.971
135.004
134.609
133.725
132.396
130.724
128.795
126.649
124.29
121.705
118.869
131.807
132.228
132.711
133.226
133.714
134.087
134.231
134.016
133.339
132.183
130.621
128.75
126.631
124.283
121.703
118.869
115.758
131.34
131.64
132.007
132.425
132.852
133.217
133.421
133.341
132.852
131.885
130.465
128.677
126.599
124.271
121.698
118.868
115.757
112.344
130.988
131.179
131.43
131.738
132.077
132.395
132.611
132.615
132.278
131.497
130.241
128.564
126.548
124.249
121.69
118.865
115.756
112.343
108.607
130.734
130.832
130.977
131.175
131.412
131.654
131.839
131.876
131.645
131.025
129.941
128.399
126.467
124.213
121.675
118.859
115.754
112.343
108.607
104.537
130.558
130.581
130.636
130.732
130.864
131.013
131.137
131.162
130.987
130.489
129.565
128.173
126.348
124.157
121.65
118.849
115.751
112.342
108.607
104.537
100.136
146.175
145.076
144.032
142.966
141.885
140.777
139.644
138.495
137.349
136.23
135.166
134.187
133.319
132.579
131.974
131.5
131.143
130.886
130.707
130.588
145.671
144.611
143.504
142.374
141.218
140.042
138.855
137.675
136.527
135.438
134.438
133.553
132.799
132.183
131.701
131.339
131.077
130.896
130.774
130.696
145.163
144.066
142.917
141.727
140.511
139.286
138.07
136.889
135.771
134.746
133.84
133.07
132.441
131.949
131.579
131.313
131.128
131.004
130.924
130.874
144.61
143.478
142.279
141.039
139.78
138.53
137.314
136.165
135.112
134.182
133.393
132.748
132.245
131.867
131.594
131.405
131.278
131.196
131.145
131.115
142.839
141.596
140.319
139.04
137.793
136.613
135.531
134.575
133.763
133.102
132.585
132.197
131.918
131.723
131.593
131.509
131.457
131.426
131.408
142.147
140.87
139.576
138.305
137.096
135.986
135.004
134.17
133.49
132.959
132.561
132.273
132.074
131.94
131.854
131.8
131.768
131.75
131.741
146.546
145.231
145.525
144.893
143.734
144.465
144.38
143.537
142.124
143.49
143.67
143.205
142.049
140.661
142.493
142.869
142.701
141.871
140.62
139.185
141.471
141.983
142.069
141.555
140.513
139.161
137.681
140.412
141.036
141.318
141.097
140.308
139.095
137.666
136.117
139.319
140.034
140.473
140.498
139.984
138.964
137.624
136.107
134.472
138.205
138.987
139.549
139.776
139.525
138.741
137.537
136.079
134.465
132.725
137.088
137.91
138.563
138.95
138.932
138.401
137.383
136.021
134.446
132.72
130.856
135.993
136.823
137.535
138.042
138.218
137.934
137.137
135.914
134.406
132.707
130.853
128.843
134.95
135.753
136.488
137.076
137.404
137.339
136.78
135.738
134.332
132.679
130.843
128.841
126.664
133.987
134.731
135.452
136.079
136.514
136.629
136.3
135.471
134.206
132.627
130.824
128.835
126.663
124.294
133.133
133.786
134.456
135.084
135.58
135.83
135.702
135.097
134.01
132.538
130.787
128.821
126.658
124.293
121.705
132.404
132.945
133.533
134.122
134.635
134.971
135.004
134.609
133.725
132.396
130.724
128.795
126.649
124.29
121.705
118.869
131.807
132.228
132.711
133.226
133.714
134.087
134.231
134.016
133.339
132.183
130.621
128.75
126.631
124.283
121.703
118.869
115.758
131.34
131.64
132.007
132.425
132.852
133.217
133.421
133.341
132.852
131.885
130.465
128.677
126.599
124.271
121.698
118.868
115.757
112.344
130.988
131.179
131.43
131.738
132.077
132.395
132.611
132.615
132.278
131.497
130.241
128.564
126.548
124.249
121.69
118.865
115.756
112.343
108.607
130.734
130.832
130.977
131.175
131.412
131.654
131.839
131.876
131.645
131.025
129.941
128.399
126.467
124.213
121.675
118.859
115.754
112.343
108.607
104.537
130.558
130.581
130.636
130.732
130.864
131.013
131.137
131.162
130.987
130.489
129.565
128.173
126.348
124.157
121.65
118.849
115.751
112.342
108.607
104.537
100.136
130.44
130.407
130.39
130.398
130.433
130.485
130.527
130.507
130.34
129.918
129.125
127.882
126.182
124.073
121.612
118.833
115.744
112.339
108.606
104.537
100.136
95.4214
146.175
145.077
144.032
142.967
141.886
140.777
139.644
138.495
137.349
136.23
135.166
134.187
133.319
132.579
131.974
131.5
131.143
130.886
130.707
130.588
130.51
145.672
144.611
143.504
142.375
141.218
140.042
138.855
137.675
136.527
135.438
134.438
133.553
132.799
132.183
131.701
131.339
131.077
130.896
130.774
130.696
130.647
145.164
144.066
142.917
141.727
140.511
139.286
138.07
136.889
135.771
134.746
133.84
133.07
132.441
131.949
131.579
131.313
131.128
131.004
130.924
130.874
130.844
144.61
143.478
142.279
141.039
139.781
138.53
137.314
136.165
135.112
134.182
133.393
132.748
132.245
131.867
131.594
131.405
131.278
131.196
131.145
131.115
131.097
142.839
141.596
140.319
139.04
137.793
136.613
135.531
134.575
133.763
133.102
132.585
132.197
131.918
131.723
131.593
131.509
131.457
131.426
131.408
131.399
142.147
140.87
139.576
138.305
137.096
135.986
135.004
134.17
133.49
132.959
132.561
132.273
132.074
131.94
131.854
131.8
131.768
131.75
131.741
131.736
146.546
145.232
145.526
144.893
143.734
144.465
144.38
143.538
142.125
143.49
143.67
143.206
142.049
140.662
142.493
142.869
142.702
141.871
140.62
139.185
141.471
141.983
142.07
141.556
140.513
139.161
137.682
140.412
141.037
141.318
141.098
140.309
139.096
137.666
136.117
139.319
140.034
140.473
140.499
139.984
138.964
137.624
136.107
134.472
138.205
138.987
139.549
139.776
139.525
138.741
137.537
136.079
134.465
132.725
137.088
137.91
138.563
138.95
138.933
138.402
137.383
136.021
134.446
132.72
130.856
135.993
136.823
137.535
138.042
138.218
137.934
137.137
135.914
134.406
132.707
130.853
128.843
134.95
135.753
136.488
137.076
137.404
137.339
136.78
135.738
134.332
132.679
130.843
128.841
126.664
133.987
134.731
135.452
136.079
136.514
136.629
136.3
135.471
134.206
132.627
130.824
128.835
126.663
124.294
133.133
133.786
134.456
135.084
135.58
135.83
135.703
135.097
134.01
132.538
130.787
128.821
126.658
124.293
121.705
132.404
132.945
133.533
134.122
134.635
134.971
135.004
134.609
133.725
132.396
130.724
128.795
126.649
124.29
121.705
118.869
131.807
132.228
132.711
133.226
133.714
134.087
134.231
134.016
133.339
132.183
130.621
128.75
126.631
124.283
121.703
118.869
115.758
131.34
131.64
132.007
132.425
132.852
133.217
133.421
133.341
132.852
131.885
130.465
128.677
126.599
124.271
121.698
118.868
115.757
112.344
130.988
131.179
131.43
131.738
132.077
132.395
132.611
132.615
132.278
131.497
130.241
128.564
126.548
124.249
121.69
118.865
115.756
112.343
108.607
130.734
130.832
130.977
131.175
131.412
131.654
131.839
131.876
131.645
131.025
129.941
128.399
126.467
124.213
121.675
118.859
115.754
112.343
108.607
104.537
130.558
130.581
130.636
130.732
130.864
131.013
131.137
131.162
130.987
130.489
129.565
128.173
126.348
124.157
121.65
118.849
115.751
112.342
108.607
104.537
100.136
130.44
130.407
130.39
130.398
130.433
130.485
130.527
130.507
130.34
129.918
129.125
127.882
126.182
124.073
121.612
118.833
115.744
112.339
108.606
104.537
100.136
95.4214
130.363
130.29
130.218
130.157
130.108
130.069
130.023
129.934
129.74
129.347
128.645
127.533
125.964
123.954
121.553
118.807
115.733
112.335
108.605
104.537
100.136
95.4214
90.428
146.175
145.077
144.033
142.967
141.886
140.777
139.644
138.495
137.35
136.23
135.166
134.187
133.319
132.579
131.974
131.5
131.143
130.886
130.707
130.588
130.51
130.462
145.672
144.611
143.505
142.375
141.219
140.042
138.855
137.675
136.527
135.438
134.438
133.553
132.799
132.183
131.701
131.339
131.077
130.896
130.774
130.696
130.647
130.617
145.164
144.067
142.917
141.727
140.512
139.286
138.07
136.889
135.771
134.746
133.84
133.07
132.441
131.949
131.579
131.313
131.128
131.004
130.924
130.874
130.844
130.827
144.61
143.478
142.279
141.039
139.781
138.53
137.314
136.165
135.112
134.182
133.393
132.748
132.245
131.867
131.594
131.405
131.278
131.196
131.145
131.115
131.097
131.088
142.839
141.596
140.319
139.041
137.793
136.613
135.531
134.575
133.763