/*--------------------------------*- C++ -*----------------------------------*\
  =========                 |
  \\      /  F ield         | OpenFOAM: The Open Source CFD Toolbox
   \\    /   O peration     | Website:  https://openfoam.org
    \\  /    A nd           | Version:  7
     \\/     M anipulation  |
\*---------------------------------------------------------------------------*/
FoamFile
{
    version     2.0;
    format      ascii;
    class       surfaceScalarField;
    location    "100";
    object      phi;
}
// * * * * * * * * * * * * * * * * * * * * * * * * * * * * * * * * * * * * * //

dimensions      [0 3 -1 0 0 0 0];

internalField   nonuniform List<scalar> 
128119
(
-6.54041e-12
1.88725e-10
1.99272e-10
-5.63975e-12
7.46563e-11
1.76358e-10
1.30999e-10
-2.86488e-12
1.7655e-10
1.07334e-10
-1.00204e-12
1.81832e-10
9.84136e-11
-3.31888e-13
1.88403e-10
9.54569e-11
-2.2783e-13
1.95796e-10
-7.28214e-12
2.11564e-10
2.22662e-10
-6.93974e-12
8.40258e-11
1.96343e-10
-1.91949e-12
1.33703e-10
1.8794e-10
-3.00427e-12
1.02303e-10
1.74629e-10
-8.7421e-13
5.06658e-11
1.26566e-10
1.45106e-10
-4.37089e-12
1.96336e-10
1.43592e-10
-1.07102e-12
1.41364e-10
1.19052e-10
-1.72762e-12
2.01716e-10
1.28477e-10
-2.64817e-13
1.52034e-10
1.09144e-10
-7.05284e-13
2.09034e-10
1.21736e-10
-2.05107e-13
1.62329e-10
1.05877e-10
-4.46762e-13
2.17215e-10
1.19023e-10
-9.52402e-14
1.71729e-10
1.17859e-10
-6.89706e-14
1.78576e-10
1.16632e-10
-4.27782e-14
1.81321e-10
-5.86855e-12
2.36208e-10
2.47364e-10
-6.61533e-12
9.39352e-11
2.18524e-10
-3.10828e-12
1.48692e-10
2.09166e-10
-4.08687e-12
1.14018e-10
1.93752e-10
-1.64844e-12
5.64815e-11
1.40636e-10
-5.6316e-13
1.0269e-10
1.75169e-10
-1.62221e-12
1.1021e-10
1.81655e-10
-5.67983e-13
7.81238e-11
1.47739e-10
-4.62162e-13
2.52958e-11
1.01732e-10
1.60729e-10
-4.64756e-12
2.1795e-10
1.59257e-10
-1.75725e-12
1.56817e-10
1.5527e-10
-2.74025e-13
1.14844e-10
1.31849e-10
-2.24589e-12
2.23537e-10
1.42538e-10
-6.06385e-13
1.68663e-10
1.46474e-10
-1.55358e-13
1.27451e-10
1.20886e-10
-1.0517e-12
2.31574e-10
1.35046e-10
-4.10945e-13
1.80071e-10
1.42369e-10
-7.51139e-14
1.39058e-10
1.17273e-10
-6.66157e-13
2.40614e-10
1.32039e-10
-2.08771e-13
1.90511e-10
1.40321e-10
-5.28973e-14
1.4932e-10
1.30748e-10
-1.44074e-13
1.9811e-10
1.38384e-10
-3.18501e-14
1.56855e-10
1.29388e-10
-8.99966e-14
2.0116e-10
1.35114e-10
-2.15714e-14
1.60251e-10
-4.27638e-12
2.62304e-10
2.74121e-10
-5.58315e-12
1.04736e-10
2.42365e-10
-3.23747e-12
1.65083e-10
2.31983e-10
-4.49387e-12
1.26804e-10
2.14902e-10
-1.86781e-12
6.27657e-11
1.55977e-10
-1.07243e-12
1.13889e-10
1.94569e-10
-2.46359e-12
1.22508e-10
2.01518e-10
-1.13897e-12
8.67654e-11
1.64039e-10
-7.63599e-13
2.81238e-11
1.12814e-10
-1.06888e-13
8.28797e-11
1.75187e-10
-7.70075e-13
1.03706e-10
1.82443e-10
-2.96994e-13
9.3258e-11
1.66818e-10
-4.28017e-13
4.92906e-11
1.24172e-10
-4.18642e-14
1.69767e-11
8.47976e-11
1.77732e-10
-4.24083e-12
2.41484e-10
1.76421e-10
-2.19432e-12
1.73815e-10
1.72263e-10
-5.82385e-13
1.274e-10
1.66016e-10
-1.39752e-13
9.54422e-11
1.45754e-10
-2.53555e-12
2.47305e-10
1.57885e-10
-9.20273e-13
1.86851e-10
1.62516e-10
-3.30416e-13
1.41368e-10
1.62189e-10
-5.31048e-14
1.07684e-10
1.33648e-10
-1.34281e-12
2.56099e-10
1.49586e-10
-6.16732e-13
1.99467e-10
1.57954e-10
-1.74912e-13
1.54256e-10
1.60194e-10
-4.01807e-14
1.19225e-10
1.29661e-10
-8.75639e-13
2.66061e-10
1.46256e-10
-3.31044e-13
2.11028e-10
1.5568e-10
-1.184e-13
1.65645e-10
1.58339e-10
-2.19943e-14
1.29387e-10
1.44827e-10
-2.25235e-13
2.19445e-10
1.5353e-10
-7.31529e-14
1.74011e-10
1.5507e-10
-1.40732e-14
1.36914e-10
1.43321e-10
-1.41652e-13
2.22824e-10
1.49901e-10
-4.86951e-14
1.77782e-10
1.49088e-10
-8.08525e-15
1.40422e-10
-3.02687e-12
2.90045e-10
3.02934e-10
-4.40631e-12
1.16334e-10
2.67928e-10
-2.87763e-12
1.82898e-10
2.56778e-10
-4.37119e-12
1.40791e-10
2.37944e-10
-1.78829e-12
6.96031e-11
1.72682e-10
-1.39697e-12
1.26228e-10
2.15601e-10
-2.94863e-12
1.35911e-10
2.23361e-10
-1.51116e-12
9.62289e-11
1.81811e-10
-9.73792e-13
3.12009e-11
1.24987e-10
-3.31475e-13
9.19343e-11
1.94443e-10
-1.23672e-12
1.15099e-10
2.02445e-10
-7.479e-13
1.0356e-10
1.85174e-10
-7.26973e-13
5.47442e-11
1.37718e-10
-1.40583e-13
1.88447e-11
9.40677e-11
-7.73005e-14
6.94691e-11
1.79504e-10
-2.80244e-13
9.29019e-11
1.86271e-10
-2.78158e-13
9.6393e-11
1.79586e-10
-3.46673e-13
6.94216e-11
1.47034e-10
-5.98861e-14
3.54944e-11
1.05714e-10
-4.55935e-14
1.17514e-11
7.30918e-11
1.96148e-10
-3.58757e-12
2.66929e-10
1.95094e-10
-2.38707e-12
1.92337e-10
1.90822e-10
-8.49114e-13
1.41144e-10
1.842e-10
-2.85114e-13
1.05861e-10
1.77e-10
-4.7975e-14
8.06796e-11
1.60807e-10
-2.62051e-12
2.73071e-10
1.74567e-10
-1.17755e-12
2.06644e-10
1.8002e-10
-5.06648e-13
1.56593e-10
1.79954e-10
-1.34183e-13
1.19448e-10
1.76035e-10
-3.06178e-14
9.18736e-11
1.47463e-10
-1.5609e-12
2.82673e-10
1.65393e-10
-8.11292e-13
2.20562e-10
1.74965e-10
-2.8332e-13
1.70867e-10
1.77736e-10
-9.51209e-14
1.32254e-10
1.74999e-10
-1.65456e-14
1.02582e-10
1.43073e-10
-1.06436e-12
2.93621e-10
1.61714e-10
-4.58309e-13
2.33338e-10
1.72446e-10
-1.90437e-13
1.83482e-10
1.75676e-10
-5.63847e-14
1.43533e-10
1.72425e-10
-9.4417e-15
1.12041e-10
1.60134e-10
-3.11386e-13
2.42641e-10
1.70064e-10
-1.19399e-13
1.92749e-10
1.72047e-10
-3.66712e-14
1.51887e-10
1.66988e-10
-4.15267e-15
1.19017e-10
1.58469e-10
-1.97519e-13
2.46377e-10
1.66045e-10
-7.90881e-14
1.96927e-10
1.6541e-10
-2.22099e-14
1.55783e-10
1.5769e-10
-1.35574e-15
1.22173e-10
-2.14236e-12
3.19671e-10
3.33843e-10
-3.35462e-12
1.28716e-10
2.95328e-10
-2.39926e-12
2.02139e-10
2.83576e-10
-3.92167e-12
1.55931e-10
2.62887e-10
-1.60435e-12
7.69787e-11
1.90765e-10
-1.5498e-12
1.39668e-10
2.38477e-10
-3.08943e-12
1.50551e-10
2.47159e-10
-1.68159e-12
1.06549e-10
2.01168e-10
-1.08983e-12
3.45616e-11
1.38237e-10
-5.32037e-13
1.01848e-10
2.15402e-10
-1.59552e-12
1.27566e-10
2.24304e-10
-1.11279e-12
1.14773e-10
2.05182e-10
-9.68879e-13
6.0688e-11
1.52566e-10
-2.36466e-13
2.08789e-11
1.04204e-10
-1.81485e-13
7.70536e-11
1.99185e-10
-5.1602e-13
1.03082e-10
2.06695e-10
-5.68581e-13
1.06973e-10
1.99322e-10
-6.1814e-13
7.70907e-11
1.63099e-10
-1.67717e-13
3.93971e-11
1.17273e-10
-9.51933e-14
1.30407e-11
8.10766e-11
-3.0876e-14
5.93471e-11
1.87153e-10
-1.2916e-13
8.16699e-11
1.90865e-10
-1.44316e-13
9.29662e-11
1.89843e-10
-2.81401e-13
8.19695e-11
1.6732e-10
-6.85138e-14
5.37648e-11
1.28832e-10
-5.29197e-14
2.57622e-11
9.17566e-11
-1.14e-14
8.87496e-12
6.42282e-11
2.15988e-10
-2.91206e-12
2.94287e-10
2.15319e-10
-2.38587e-12
2.12416e-10
2.11003e-10
-1.05194e-12
1.56104e-10
2.04044e-10
-4.27842e-13
1.17264e-10
1.96387e-10
-1.12872e-13
8.94935e-11
1.87636e-10
-2.69304e-14
6.91062e-11
1.77025e-10
-2.54215e-12
3.0085e-10
1.92627e-10
-1.36246e-12
2.28092e-10
1.9905e-10
-6.7288e-13
1.73153e-10
1.99337e-10
-2.23277e-13
1.3231e-10
1.95316e-10
-7.44266e-14
1.01912e-10
1.87867e-10
-1.35497e-14
7.90188e-11
1.62344e-10
-1.6973e-12
3.11323e-10
1.82507e-10
-9.83454e-13
2.43411e-10
1.93459e-10
-3.96345e-13
1.8893e-10
1.96879e-10
-1.56169e-13
1.46494e-10
1.94164e-10
-4.46138e-14
1.13795e-10
1.86431e-10
-7.68162e-15
8.85837e-11
1.5752e-10
-1.22212e-12
3.23326e-10
1.78449e-10
-5.8569e-13
2.57496e-10
1.90674e-10
-2.67764e-13
2.02875e-10
1.94597e-10
-9.5747e-14
1.58988e-10
1.91307e-10
-2.7861e-14
1.24291e-10
1.82038e-10
-2.67313e-15
9.69929e-11
1.76706e-10
-4.00842e-13
2.67758e-10
1.8804e-10
-1.7027e-13
2.13122e-10
1.90577e-10
-6.27667e-14
1.68243e-10
1.85274e-10
-1.54744e-14
1.32034e-10
1.73643e-10
1.26751e-16
1.03064e-10
1.7487e-10
-2.57106e-13
2.71879e-10
1.83596e-10
-1.12691e-13
2.17742e-10
1.83225e-10
-3.87292e-14
1.72559e-10
1.74956e-10
-8.04514e-15
1.35539e-10
1.60692e-10
1.50234e-15
1.05544e-10
-1.52744e-12
3.5131e-10
3.66891e-10
-2.50281e-12
1.41875e-10
3.24631e-10
-1.9489e-12
2.2282e-10
3.12389e-10
-3.32156e-12
1.72213e-10
2.89746e-10
-1.39991e-12
8.4888e-11
2.10236e-10
-1.57477e-12
1.54234e-10
2.63249e-10
-2.96947e-12
1.6644e-10
2.72947e-10
-1.69702e-12
1.17734e-10
2.22147e-10
-1.12745e-12
3.82085e-11
1.52595e-10
-6.90148e-13
1.12638e-10
2.38191e-10
-1.82224e-12
1.41156e-10
2.48098e-10
-1.35572e-12
1.26991e-10
2.2696e-10
-1.136e-12
6.71701e-11
1.68726e-10
-3.21242e-13
2.3093e-11
1.15229e-10
-2.86608e-13
8.53522e-11
2.20645e-10
-7.30441e-13
1.14205e-10
2.28977e-10
-8.36825e-13
1.1852e-10
2.20826e-10
-8.56514e-13
8.5431e-11
1.80677e-10
-2.78069e-13
4.36474e-11
1.29908e-10
-1.45568e-13
1.44471e-11
8.98069e-11
-7.8477e-14
6.58321e-11
2.07656e-10
-2.50744e-13
9.06005e-11
2.11789e-10
-3.1798e-13
1.03161e-10
2.1068e-10
-4.95819e-13
9.09903e-11
1.85637e-10
-1.79704e-13
5.96826e-11
1.42925e-10
-1.12067e-13
2.85911e-11
1.01782e-10
-3.13553e-14
9.8471e-12
7.12495e-11
-1.92515e-14
5.12847e-11
1.95717e-10
-4.72204e-14
7.15201e-11
1.9735e-10
-1.0259e-13
8.6092e-11
1.97842e-10
-1.79127e-13
8.72811e-11
1.8471e-10
-9.48865e-14
6.88614e-11
1.52318e-10
-5.86988e-14
4.12125e-11
1.1344e-10
-1.33073e-14
1.97586e-11
8.08863e-11
-7.75612e-15
6.93068e-12
5.73053e-11
2.37258e-10
-2.31067e-12
3.23562e-10
2.37115e-10
-2.24788e-12
2.34059e-10
2.32858e-10
-1.18399e-12
1.72317e-10
2.25619e-10
-5.58876e-13
1.29666e-10
2.17541e-10
-1.83054e-13
9.91302e-11
2.08186e-10
-6.11509e-14
7.66577e-11
1.97279e-10
-1.22955e-14
5.97063e-11
1.94422e-10
-2.35005e-12
3.30652e-10
2.12084e-10
-1.46944e-12
2.51218e-10
2.19652e-10
-8.18508e-13
1.91091e-10
2.2041e-10
-3.16582e-13
1.46296e-10
2.16354e-10
-1.23332e-13
1.12885e-10
2.08442e-10
-3.58276e-14
8.76557e-11
1.97117e-10
-6.81154e-15
6.83402e-11
1.78302e-10
-1.75229e-12
3.42068e-10
2.00943e-10
-1.12323e-12
2.6804e-10
2.13483e-10
-5.09018e-13
2.0849e-10
2.17692e-10
-2.2206e-13
1.61977e-10
2.15076e-10
-7.69926e-14
1.26047e-10
2.06848e-10
-2.26356e-14
9.82685e-11
1.93976e-10
-2.65303e-15
7.6649e-11
1.73013e-10
-1.34075e-12
3.55197e-10
1.96479e-10
-7.07425e-13
2.8353e-10
2.10409e-10
-3.48583e-13
2.23874e-10
2.15168e-10
-1.39698e-13
1.75792e-10
2.11912e-10
-4.95432e-14
1.37674e-10
2.01974e-10
-1.18332e-14
1.076e-10
1.86797e-10
1.03164e-16
8.38387e-11
1.94562e-10
-4.91254e-13
2.94822e-10
2.07503e-10
-2.25161e-13
2.3518e-10
2.10722e-10
-9.2252e-14
1.86025e-10
2.05229e-10
-2.92098e-14
1.46252e-10
1.92659e-10
-5.13211e-15
1.14337e-10
1.74945e-10
1.73872e-15
8.88089e-11
1.92541e-10
-3.19556e-13
2.99356e-10
2.02599e-10
-1.49349e-13
2.40279e-10
2.02593e-10
-5.76179e-14
1.90798e-10
1.938e-10
-1.64129e-14
1.50135e-10
1.78289e-10
-1.21384e-15
1.17092e-10
1.58428e-10
2.2936e-15
9.04493e-11
-1.09583e-12
3.84967e-10
4.02045e-10
-1.84591e-12
1.55801e-10
3.55812e-10
-1.56929e-12
2.44952e-10
3.43236e-10
-2.70183e-12
1.89621e-10
3.18526e-10
-1.20518e-12
9.33365e-11
2.311e-10
-1.51004e-12
1.69933e-10
2.89936e-10
-2.68397e-12
1.83578e-10
3.00738e-10
-1.60713e-12
1.29783e-10
2.44761e-10
-1.10492e-12
4.21405e-11
1.68072e-10
-8.00413e-13
1.24332e-10
2.6287e-10
-1.91588e-12
1.55898e-10
2.73884e-10
-1.47772e-12
1.40243e-10
2.50561e-10
-1.22494e-12
7.42047e-11
1.86239e-10
-3.90545e-13
2.54926e-11
1.27171e-10
-3.8523e-13
9.43786e-11
2.43977e-10
-9.0723e-13
1.26311e-10
2.53212e-10
-1.0574e-12
1.3109e-10
2.4422e-10
-1.04349e-12
9.45146e-11
1.99802e-10
-3.8109e-13
4.82724e-11
1.4365e-10
-1.94204e-13
1.59772e-11
9.93001e-11
-1.30589e-13
7.29211e-11
2.30024e-10
-3.71268e-13
1.00362e-10
2.34609e-10
-4.93994e-13
1.14284e-10
2.33389e-10
-6.95235e-13
1.00814e-10
2.05642e-10
-2.96731e-13
6.61198e-11
1.58322e-10
-1.73027e-13
3.16741e-11
1.12742e-10
-5.40209e-14
1.09079e-11
7.89216e-11
-4.47084e-14
5.689e-11
2.17154e-10
-1.05667e-13
7.93403e-11
2.18975e-10
-2.09899e-13
9.55174e-11
2.1954e-10
-3.2846e-13
9.68706e-11
2.04949e-10
-2.02239e-13
7.64342e-11
1.68992e-10
-1.24536e-13
4.57419e-11
1.2584e-10
-3.81405e-14
2.19252e-11
8.97288e-11
-1.87354e-14
7.68952e-12
6.35709e-11
-9.04766e-15
4.46067e-11
2.03966e-10
-2.3732e-14
6.26957e-11
2.04565e-10
-5.05497e-14
7.80486e-11
2.05444e-10
-1.18554e-13
8.66861e-11
1.98555e-10
-9.02817e-14
7.9145e-11
1.74517e-10
-6.68318e-14
5.63563e-11
1.37241e-10
-1.72918e-14
3.24472e-11
1.00769e-10
-8.57869e-15
1.55486e-11
7.22769e-11
-3.03636e-15
5.55624e-12
5.17521e-11
2.59917e-10
-1.81125e-12
3.54703e-10
2.60492e-10
-2.02801e-12
2.57272e-10
2.56407e-10
-1.24749e-12
1.898e-10
2.4898e-10
-6.70386e-13
1.43101e-10
2.40539e-10
-2.55569e-13
1.09609e-10
2.3061e-10
-9.89101e-14
8.49116e-11
2.18884e-10
-2.96235e-14
6.6233e-11
2.04981e-10
-6.29758e-15
5.18482e-11
2.12966e-10
-2.0918e-12
3.62414e-10
2.32951e-10
-1.50211e-12
2.76036e-10
2.4185e-10
-9.34615e-13
2.10427e-10
2.43225e-10
-4.09518e-13
1.61442e-10
2.39225e-10
-1.7624e-13
1.24815e-10
2.30893e-10
-6.1465e-14
9.70938e-11
2.18704e-10
-1.87134e-14
7.5812e-11
2.03063e-10
-2.68461e-15
5.92553e-11
1.9531e-10
-1.73368e-12
3.74851e-10
2.20716e-10
-1.22329e-12
2.94466e-10
2.35056e-10
-6.15683e-13
2.29569e-10
2.40225e-10
-2.91019e-13
1.78743e-10
2.37813e-10
-1.1331e-13
1.39369e-10
2.29127e-10
-4.02345e-14
1.0885e-10
2.15219e-10
-1.01385e-14
8.50311e-11
1.97156e-10
-4.06824e-16
6.62906e-11
1.89524e-10
-1.41518e-12
3.89179e-10
2.15815e-10
-8.17414e-13
3.11458e-10
2.31672e-10
-4.30412e-13
2.46502e-10
2.37439e-10
-1.87592e-13
1.93986e-10
2.34314e-10
-7.43416e-14
1.52225e-10
2.23728e-10
-2.30851e-14
1.19186e-10
2.07254e-10
-4.20327e-15
9.30091e-11
1.86578e-10
1.21172e-15
7.22039e-11
2.13711e-10
-5.7967e-13
3.23851e-10
2.28472e-10
-2.83117e-13
2.58948e-10
2.32534e-10
-1.24914e-13
2.05278e-10
2.26923e-10
-4.52896e-14
1.6171e-10
2.13409e-10
-1.19562e-14
1.2665e-10
1.94103e-10
-3.6544e-16
9.85251e-11
1.7122e-10
1.99429e-15
7.60148e-11
2.11493e-10
-3.83633e-13
3.28828e-10
2.23073e-10
-1.88707e-13
2.64561e-10
2.23563e-10
-7.8837e-14
2.10545e-10
2.14287e-10
-2.64373e-14
1.66004e-10
1.97491e-10
-5.06568e-15
1.29701e-10
1.75777e-10
1.48538e-15
1.00347e-10
1.51691e-10
2.16787e-15
7.67918e-11
-7.87082e-13
4.20557e-10
4.39209e-10
-1.35204e-12
1.70465e-10
3.8878e-10
-1.25988e-12
2.68502e-10
3.76073e-10
-2.13928e-12
2.08114e-10
3.49169e-10
-1.02709e-12
1.02315e-10
2.53319e-10
-1.38889e-12
1.86772e-10
3.18551e-10
-2.32007e-12
2.01955e-10
3.30538e-10
-1.45692e-12
1.42696e-10
2.69016e-10
-1.04068e-12
4.63562e-11
1.84679e-10
-8.63008e-13
1.36941e-10
2.89462e-10
-1.89227e-12
1.71806e-10
3.01685e-10
-1.49578e-12
1.54535e-10
2.76004e-10
-1.24202e-12
8.17963e-11
2.05122e-10
-4.41778e-13
2.80797e-11
1.40044e-10
-4.71138e-13
1.04156e-10
2.69241e-10
-1.03523e-12
1.39432e-10
2.79464e-10
-1.2138e-12
1.44719e-10
2.69564e-10
-1.16858e-12
1.04366e-10
2.20525e-10
-4.68941e-13
5.32845e-11
1.58535e-10
-2.38691e-13
1.7635e-11
1.09581e-10
-1.8487e-13
8.06297e-11
2.54342e-10
-4.84431e-13
1.10979e-10
2.59422e-10
-6.58894e-13
1.26384e-10
2.58084e-10
-8.68067e-13
1.11505e-10
2.27402e-10
-4.10581e-13
7.31217e-11
1.75067e-10
-2.32847e-13
3.50275e-11
1.2466e-10
-7.86616e-14
1.20615e-11
8.72633e-11
-7.29058e-14
6.30157e-11
2.40544e-10
-1.68387e-13
8.78851e-11
2.42563e-10
-3.20998e-13
1.05808e-10
2.43196e-10
-4.75341e-13
1.07318e-10
2.27032e-10
-3.14449e-13
8.46762e-11
1.87198e-10
-1.93321e-13
5.06736e-11
1.39391e-10
-6.63902e-14
2.42874e-11
9.93908e-11
-3.11623e-14
8.51787e-12
7.04161e-11
-2.21043e-14
4.94836e-11
2.26304e-10
-5.51581e-14
6.95506e-11
2.26975e-10
-1.0975e-13
8.65896e-11
2.27962e-10
-2.19354e-13
9.61922e-11
2.20319e-10
-1.82628e-13
8.78432e-11
1.93633e-10
-1.35377e-13
6.25506e-11
1.52252e-10
-4.69577e-14
3.6008e-11
1.11787e-10
-2.23662e-14
1.72526e-11
8.01795e-11
-8.35422e-15
6.16444e-12
5.74118e-11
-4.57055e-15
3.89284e-11
2.10664e-10
-1.03562e-14
5.50403e-11
2.11632e-10
-2.8707e-14
6.99642e-11
2.12678e-10
-6.45744e-14
8.24157e-11
2.09779e-10
-8.275e-14
8.3962e-11
1.93821e-10
-6.72352e-14
6.92484e-11
1.61692e-10
-2.4267e-14
4.61319e-11
1.23581e-10
-1.05714e-14
2.59208e-11
9.04073e-11
-2.979e-15
1.25092e-11
6.53269e-11
-1.39065e-15
4.51206e-12
4.72414e-11
2.83887e-10
-1.41206e-12
3.87608e-10
2.85406e-10
-1.77076e-12
2.82006e-10
2.81665e-10
-1.25106e-12
2.08562e-10
2.74152e-10
-7.56403e-13
1.57584e-10
2.6544e-10
-3.26926e-13
1.20958e-10
2.54989e-10
-1.39452e-13
9.38859e-11
2.4246e-10
-4.93199e-14
7.33646e-11
2.27429e-10
-1.5539e-14
5.75174e-11
2.09808e-10
-2.68535e-15
4.51065e-11
2.32598e-10
-1.8075e-12
3.96021e-10
2.55193e-10
-1.47065e-12
3.02499e-10
2.65657e-10
-1.01523e-12
2.31175e-10
2.67807e-10
-4.97065e-13
1.77764e-10
2.63988e-10
-2.31615e-13
1.37734e-10
2.55301e-10
-9.01765e-14
1.07355e-10
2.4226e-10
-3.25942e-14
8.39752e-11
2.25301e-10
-8.67896e-15
6.57355e-11
2.05061e-10
-7.02941e-16
5.13511e-11
2.13312e-10
-1.65493e-12
4.0956e-10
2.41789e-10
-1.27986e-12
3.22643e-10
2.58193e-10
-7.10594e-13
2.52182e-10
2.64503e-10
-3.607e-13
1.96808e-10
2.62429e-10
-1.52975e-13
1.53793e-10
2.53349e-10
-6.0371e-14
1.20354e-10
2.38399e-10
-1.92469e-14
9.41872e-11
2.18747e-10
-3.9751e-15
7.35416e-11
1.95724e-10
5.73746e-16
5.71446e-11
2.06998e-10
-1.44407e-12
4.25158e-10
2.36424e-10
-9.09813e-13
3.41231e-10
2.54476e-10
-5.10269e-13
2.70772e-10
2.61435e-10
-2.38438e-13
2.13589e-10
2.58568e-10
-1.02059e-13
1.6798e-10
2.47378e-10
-3.63811e-14
1.31783e-10
2.29577e-10
-9.79784e-15
1.03025e-10
2.07011e-10
-5.55143e-16
8.01032e-11
1.81614e-10
1.37811e-15
6.18081e-11
2.34122e-10
-6.62678e-13
3.54795e-10
2.50963e-10
-3.428e-13
2.8444e-10
2.56034e-10
-1.60356e-13
2.26022e-10
2.50412e-10
-6.36673e-14
1.78447e-10
2.35969e-10
-2.03225e-14
1.40036e-10
2.15009e-10
-3.46612e-15
1.09135e-10
1.8997e-10
1.3624e-15
8.43325e-11
1.63198e-10
1.71502e-15
6.45067e-11
2.31692e-10
-4.47684e-13
3.60241e-10
2.45032e-10
-2.30238e-13
2.90604e-10
2.46156e-10
-1.02215e-13
2.31822e-10
2.36467e-10
-3.81037e-14
1.83185e-10
2.18368e-10
-1.00088e-14
1.4341e-10
1.9471e-10
-6.01693e-17
1.11153e-10
1.68303e-10
2.16111e-15
8.51958e-11
1.41519e-10
1.74678e-15
6.45036e-11
-5.62619e-13
4.57969e-10
4.78273e-10
-9.8582e-13
1.85834e-10
4.2343e-10
-1.00977e-12
2.93396e-10
4.10798e-10
-1.6669e-12
2.27631e-10
3.81571e-10
-8.66759e-13
1.11801e-10
2.76819e-10
-1.2372e-12
2.04715e-10
3.4904e-10
-1.94191e-12
2.21523e-10
3.62286e-10
-1.27983e-12
1.56446e-10
2.94861e-10
-9.50514e-13
5.08456e-11
2.02383e-10
-8.82377e-13
1.50473e-10
3.17983e-10
-1.77955e-12
1.88881e-10
3.31512e-10
-1.43538e-12
1.69873e-10
3.03301e-10
-1.20115e-12
8.99456e-11
2.25386e-10
-4.74019e-13
3.08558e-11
1.53856e-10
-5.39421e-13
1.14697e-10
2.96464e-10
-1.10949e-12
1.53583e-10
3.07758e-10
-1.29914e-12
1.59419e-10
2.96887e-10
-1.22912e-12
1.14995e-10
2.42866e-10
-5.36143e-13
5.86894e-11
1.7458e-10
-2.76851e-13
1.94222e-11
1.2066e-10
-2.38633e-13
8.89776e-11
2.80673e-10
-5.83829e-13
1.2248e-10
2.86293e-10
-7.99941e-13
1.39494e-10
2.8483e-10
-1.00375e-12
1.23093e-10
2.50973e-10
-5.12627e-13
8.0708e-11
1.93203e-10
-2.88434e-13
3.86603e-11
1.37566e-10
-1.04306e-13
1.33106e-11
9.62958e-11
-1.03251e-13
6.9676e-11
2.65973e-10
-2.33125e-13
9.71766e-11
2.68209e-10
-4.30894e-13
1.17e-10
2.68916e-10
-6.13379e-13
1.18681e-10
2.51046e-10
-4.25847e-13
9.36399e-11
2.06995e-10
-2.62136e-13
5.6037e-11
1.54126e-10
-9.71386e-14
2.68559e-11
1.09896e-10
-4.48649e-14
9.41852e-12
7.78585e-11
-3.69532e-14
5.48119e-11
2.50678e-10
-8.98135e-14
7.70401e-11
2.51423e-10
-1.73644e-13
9.59161e-11
2.52519e-10
-3.21185e-13
1.06559e-10
2.44056e-10
-2.7964e-13
9.73132e-11
2.14492e-10
-2.07081e-13
6.9294e-11
1.68649e-10
-8.06101e-14
3.98879e-11
1.23824e-10
-3.80334e-14
1.91112e-11
8.88131e-11
-1.4619e-14
6.82843e-12
6.3594e-11
-1.15562e-14
4.31854e-11
2.33734e-10
-2.66436e-14
6.10592e-11
2.34811e-10
-6.29031e-14
7.7618e-11
2.35981e-10
-1.25564e-13
9.14445e-11
2.3277e-10
-1.58174e-13
9.31783e-11
2.1506e-10
-1.32357e-13
7.68589e-11
1.79389e-10
-5.84784e-14
5.11971e-11
1.37097e-10
-2.7301e-14
2.8763e-11
1.00293e-10
-9.72391e-15
1.38795e-11
7.24711e-11
-4.1124e-15
5.0059e-12
5.24086e-11
-1.8738e-15
3.39905e-11
2.14748e-10
-4.8429e-15
4.83391e-11
2.1737e-10
-1.37142e-14
6.2324e-11
2.19286e-10
-3.63043e-14
7.62429e-11
2.18887e-10
-5.92423e-14
8.408e-11
2.0972e-10
-6.52847e-14
7.82309e-11
1.84904e-10
-3.1137e-14
5.94465e-11
1.48408e-10
-1.34157e-14
3.77722e-11
1.11743e-10
-3.77386e-15
2.10201e-11
8.19001e-11
-1.0906e-15
1.01784e-11
5.96617e-11
-2.93218e-16
3.68356e-12
4.35581e-11
3.09089e-10
-1.10008e-12
4.22173e-10
3.11771e-10
-1.50853e-12
3.08173e-10
3.08588e-10
-1.2066e-12
2.28567e-10
3.01151e-10
-8.13508e-13
1.73125e-10
2.9227e-10
-3.93418e-13
1.33188e-10
2.81384e-10
-1.81651e-13
1.03604e-10
2.68091e-10
-7.12262e-14
8.11184e-11
2.51924e-10
-2.61807e-14
6.37108e-11
2.32784e-10
-7.34806e-15
5.00397e-11
2.10975e-10
-9.18043e-16
3.91931e-11
2.53249e-10
-1.52682e-12
4.31354e-10
2.78736e-10
-1.38948e-12
3.30516e-10
2.91032e-10
-1.05791e-12
2.53299e-10
2.94171e-10
-5.74303e-13
1.95275e-10
2.90668e-10
-2.87475e-13
1.51655e-10
2.81728e-10
-1.2149e-13
1.18466e-10
2.6787e-10
-4.83947e-14
9.28503e-11
2.49568e-10
-1.58651e-14
7.28139e-11
2.27517e-10
-3.58125e-15
5.69682e-11
2.0273e-10
2.10039e-16
4.43442e-11
2.32247e-10
-1.53255e-12
4.46071e-10
2.64093e-10
-1.29317e-12
3.52478e-10
2.82854e-10
-7.8852e-13
2.76291e-10
2.90541e-10
-4.28338e-13
2.16186e-10
2.88951e-10
-1.95105e-13
1.69334e-10
2.79574e-10
-8.28672e-14
1.3281e-10
2.63601e-10
-2.99419e-14
1.04142e-10
2.42307e-10
-8.51388e-15
8.14608e-11
2.17157e-10
-9.4051e-16
6.33964e-11
1.89792e-10
8.45562e-16
4.89658e-11
2.25376e-10
-1.42991e-12
4.63012e-10
2.58236e-10
-9.79774e-13
3.72752e-10
2.78782e-10
-5.84756e-13
2.96645e-10
2.87171e-10
-2.90915e-13
2.34616e-10
2.847e-10
-1.32292e-13
1.84954e-10
2.72985e-10
-5.16614e-14
1.45422e-10
2.53845e-10
-1.66552e-14
1.13914e-10
2.29307e-10
-3.11073e-15
8.87293e-11
2.01503e-10
7.9581e-16
6.85712e-11
1.72534e-10
1.19685e-15
5.24706e-11
2.55724e-10
-7.36668e-13
3.87552e-10
2.74933e-10
-4.02478e-13
3.11613e-10
2.81239e-10
-1.98005e-13
2.48271e-10
2.7572e-10
-8.41447e-14
1.96479e-10
2.60394e-10
-3.0207e-14
1.54529e-10
2.37738e-10
-7.54046e-15
1.2067e-10
2.10432e-10
1.15417e-16
9.34144e-11
1.8107e-10
1.698e-15
7.15661e-11
1.51844e-10
1.29741e-15
5.41803e-11
2.53072e-10
-5.09688e-13
3.93493e-10
2.68437e-10
-2.7315e-13
3.18364e-10
2.70388e-10
-1.27538e-13
2.54642e-10
2.60365e-10
-5.13241e-14
2.01697e-10
2.40972e-10
-1.60646e-14
1.58253e-10
2.15293e-10
-2.31654e-15
1.22902e-10
1.86431e-10
1.6861e-15
9.43709e-11
1.57017e-10
2.01487e-15
7.15637e-11
1.29017e-10
1.25335e-15
5.35441e-11
-3.97771e-13
4.9696e-10
5.18983e-10
-7.16203e-13
2.01821e-10
4.59532e-10
-8.08244e-13
3.19553e-10
4.47303e-10
-1.28921e-12
2.48108e-10
4.15621e-10
-7.24608e-13
1.21766e-10
3.01521e-10
-1.07461e-12
2.23702e-10
3.81302e-10
-1.58953e-12
2.42207e-10
3.95869e-10
-1.0986e-12
1.70985e-10
3.22206e-10
-8.47218e-13
5.55922e-11
2.21123e-10
-8.65284e-13
1.64903e-10
3.48384e-10
-1.6097e-12
2.07086e-10
3.63308e-10
-1.3226e-12
1.86222e-10
3.32398e-10
-1.11909e-12
9.86338e-11
2.46991e-10
-4.87667e-13
3.38155e-11
1.68581e-10
-5.87002e-13
1.26007e-10
3.25664e-10
-1.13164e-12
1.68772e-10
3.38114e-10
-1.31633e-12
1.752e-10
3.26203e-10
-1.2303e-12
1.26408e-10
2.6684e-10
-5.79999e-13
6.44904e-11
1.91795e-10
-3.06963e-13
2.13402e-11
1.32545e-10
-2.89041e-13
9.79742e-11
3.09043e-10
-6.63796e-13
1.34878e-10
3.15249e-10
-9.07052e-13
1.5363e-10
3.13655e-10
-1.0947e-12
1.35591e-10
2.76382e-10
-5.95654e-13
8.88873e-11
2.12751e-10
-3.36835e-13
4.25767e-11
1.51474e-10
-1.2981e-13
1.46568e-11
1.06029e-10
-1.3489e-13
7.6888e-11
2.93506e-10
-2.97108e-13
1.07239e-10
2.95978e-10
-5.33673e-13
1.29122e-10
2.96768e-10
-7.35244e-13
1.30992e-10
2.77053e-10
-5.29775e-13
1.0335e-10
2.28435e-10
-3.27629e-13
6.18464e-11
1.70083e-10
-1.29197e-13
2.96372e-11
1.21271e-10
-5.95454e-14
1.03938e-11
8.59167e-11
-5.34606e-14
6.0605e-11
2.77178e-10
-1.26973e-13
8.51832e-11
2.78003e-10
-2.40443e-13
1.06057e-10
2.79219e-10
-4.21287e-13
1.17832e-10
2.69866e-10
-3.78121e-13
1.07611e-10
2.37174e-10
-2.79733e-13
7.66268e-11
1.86478e-10
-1.17294e-13
4.41063e-11
1.36912e-10
-5.53145e-14
2.1132e-11
9.81998e-11
-2.18063e-14
7.55034e-12
7.03153e-11
-1.96116e-14
4.78356e-11
2.58909e-10
-4.51864e-14
6.76341e-11
2.60103e-10
-1.00343e-13
8.59769e-11
2.614e-10
-1.89484e-13
1.01296e-10
2.57846e-10
-2.36627e-13
1.0322e-10
2.38228e-10
-2.00632e-13
8.51439e-11
1.98711e-10
-9.67011e-14
5.67143e-11
1.51861e-10
-4.63301e-14
3.18618e-11
1.11093e-10
-1.77085e-14
1.53746e-11
8.02749e-11
-7.38678e-15
5.54508e-12
5.80521e-11
-5.40283e-15
3.77083e-11
2.38264e-10
-1.35706e-14
5.3626e-11
2.41176e-10
-3.22239e-14
6.91417e-11
2.43306e-10
-7.31806e-14
8.45898e-11
2.42872e-10
-1.13286e-13
9.33001e-11
2.32703e-10
-1.23433e-13
8.6823e-11
2.05154e-10
-6.81846e-14
6.59759e-11
1.64648e-10
-3.31442e-14
4.19163e-11
1.23964e-10
-1.20815e-14
2.33239e-11
9.08572e-11
-4.56127e-15
1.12932e-11
6.61873e-11
-1.48424e-15
4.08669e-12
4.83231e-11
-5.60677e-16
2.96139e-11
2.15352e-10
-1.68984e-15
4.23958e-11
2.20693e-10
-6.59863e-15
5.52713e-11
2.24429e-10
-1.8108e-14
6.93455e-11
2.26201e-10
-3.93905e-14
8.08181e-11
2.22189e-10
-5.39988e-14
8.2692e-11
2.05313e-10
-3.77846e-14
7.07173e-11
1.73671e-10
-1.71089e-14
5.03406e-11
1.35857e-10
-4.96254e-15
3.1074e-11
1.01694e-10
-1.37089e-15
1.71823e-11
7.48975e-11
1.51099e-16
8.31894e-12
5.50262e-11
2.17745e-16
3.00159e-12
4.05563e-11
3.35354e-10
-8.5956e-13
4.58174e-10
3.39496e-10
-1.26207e-12
3.3568e-10
3.37084e-10
-1.12723e-12
2.49746e-10
3.29929e-10
-8.40933e-13
1.89697e-10
3.21046e-10
-4.51488e-13
1.46308e-10
3.09824e-10
-2.24055e-13
1.14075e-10
2.95842e-10
-9.50193e-14
8.95139e-11
2.78556e-10
-3.82127e-14
7.04443e-11
2.57856e-10
-1.28566e-14
5.54281e-11
2.34079e-10
-3.15873e-15
4.34805e-11
2.08009e-10
-6.08913e-17
3.39144e-11
2.74781e-10
-1.26876e-12
4.68171e-10
3.035e-10
-1.2745e-12
3.59986e-10
3.1789e-10
-1.06382e-12
2.76725e-10
3.22271e-10
-6.36938e-13
2.13944e-10
3.19283e-10
-3.41512e-13
1.66587e-10
3.10201e-10
-1.547e-13
1.30438e-10
2.95597e-10
-6.59823e-14
1.0246e-10
2.7595e-10
-2.42332e-14
8.05097e-11
2.52022e-10
-7.16791e-15
6.31028e-11
2.24931e-10
-1.02971e-15
4.91958e-11
1.96083e-10
5.36481e-16
3.80526e-11
2.51989e-10
-1.38358e-12
4.84134e-10
2.87553e-10
-1.26713e-12
3.83868e-10
3.08955e-10
-8.45404e-13
3.01816e-10
3.18293e-10
-4.9089e-13
2.36843e-10
3.17396e-10
-2.38524e-13
1.86004e-10
3.07828e-10
-1.07401e-13
1.4623e-10
2.90887e-10
-4.21846e-14
1.1492e-10
2.67922e-10
-1.40135e-14
9.00706e-11
2.40547e-10
-3.04306e-15
7.02234e-11
2.10576e-10
3.15359e-16
5.43238e-11
1.79893e-10
7.79462e-16
4.16065e-11
2.44535e-10
-1.37845e-12
5.02484e-10
2.81178e-10
-1.02406e-12
4.05914e-10
3.04508e-10
-6.50407e-13
3.24034e-10
3.14602e-10
-3.43338e-13
2.57029e-10
3.12726e-10
-1.6451e-13
2.03161e-10
3.00574e-10
-6.87586e-14
1.60117e-10
2.80121e-10
-2.47672e-14
1.25703e-10
2.53547e-10
-6.44135e-15
9.81076e-11
2.23206e-10
-2.63444e-16
7.59557e-11
1.91428e-10
1.12606e-15
5.82129e-11
1.60222e-10
8.89162e-16
4.40912e-11
2.78445e-10
-7.98186e-13
4.22011e-10
3.00305e-10
-4.60082e-13
3.40377e-10
3.08102e-10
-2.37043e-13
2.71987e-10
3.02862e-10
-1.06506e-13
2.1582e-10
2.86711e-10
-4.15272e-14
1.70145e-10
2.62347e-10
-1.25897e-14
1.33159e-10
2.32676e-10
-1.73652e-15
1.03288e-10
2.00572e-10
1.28431e-15
7.92733e-11
1.68472e-10
1.47811e-15
6.01105e-11
1.38217e-10
8.98925e-16
4.49794e-11
2.7556e-10
-5.67356e-13
4.28472e-10
2.93209e-10
-3.16417e-13
3.47747e-10
2.96215e-10
-1.54407e-13
2.78965e-10
2.85996e-10
-6.59995e-14
2.21551e-10
2.65325e-10
-2.31576e-14
1.74246e-10
2.37578e-10
-5.29285e-15
1.35623e-10
2.06139e-10
7.57377e-16
1.04346e-10
1.73929e-10
1.98779e-15
7.92708e-11
1.43146e-10
1.54756e-15
5.94052e-11
1.15207e-10
8.34581e-16
4.38813e-11
-2.76107e-13
5.37235e-10
5.61034e-10
-5.18188e-13
2.18313e-10
4.96816e-10
-6.46712e-13
3.46803e-10
4.85349e-10
-9.9622e-13
2.69417e-10
4.51094e-10
-6.00917e-13
1.32148e-10
3.2726e-10
-9.15112e-13
2.43664e-10
4.15225e-10
-1.28268e-12
2.63932e-10
4.31172e-10
-9.27178e-13
1.86263e-10
3.50953e-10
-7.4053e-13
6.05795e-11
2.40835e-10
-8.19971e-13
1.8018e-10
3.80561e-10
-1.4123e-12
2.26353e-10
3.96958e-10
-1.18084e-12
2.03522e-10
3.63191e-10
-1.01229e-12
1.07828e-10
2.69863e-10
-4.84403e-13
3.69487e-11
1.84171e-10
-6.12737e-13
1.38068e-10
3.5679e-10
-1.10841e-12
1.84971e-10
3.70475e-10
-1.27558e-12
1.92031e-10
3.57458e-10
-1.18273e-12
1.3858e-10
2.92403e-10
-6.00308e-13
7.0677e-11
2.1015e-10
-3.27887e-13
2.33856e-11
1.45216e-10
-3.33374e-13
1.07626e-10
3.39471e-10
-7.20345e-13
1.48182e-10
3.46311e-10
-9.74295e-13
1.68801e-10
3.4458e-10
-1.138e-12
1.49008e-10
3.03645e-10
-6.5481e-13
9.76661e-11
2.33724e-10
-3.75625e-13
4.67796e-11
1.66394e-10
-1.53931e-13
1.61009e-11
1.16469e-10
-1.66728e-13
8.46593e-11
3.2317e-10
-3.57222e-13
1.18083e-10
3.25898e-10
-6.23219e-13
1.42187e-10
3.26781e-10
-8.33838e-13
1.44263e-10
3.05081e-10
-6.19492e-13
1.13817e-10
2.51542e-10
-3.86314e-13
6.81084e-11
1.87278e-10
-1.61142e-13
3.26345e-11
1.33528e-10
-7.47926e-14
1.14446e-11
9.45993e-11
-7.13725e-14
6.68776e-11
3.0587e-10
-1.65651e-13
9.40007e-11
3.06782e-10
-3.0769e-13
1.17039e-10
3.08128e-10
-5.15929e-13
1.30041e-10
2.97813e-10
-4.73725e-13
1.18763e-10
2.61735e-10
-3.50463e-13
8.45684e-11
2.05784e-10
-1.5571e-13
4.86743e-11
1.51084e-10
-7.3827e-14
2.332e-11
1.08363e-10
-2.98316e-14
8.33199e-12
7.75927e-11
-2.87171e-14
5.28914e-11
2.86278e-10
-6.57562e-14
7.47827e-11
2.87599e-10
-1.40438e-13
9.50653e-11
2.89035e-10
-2.55247e-13
1.12007e-10
2.85109e-10
-3.16667e-13
1.14139e-10
2.63417e-10
-2.70645e-13
9.41523e-11
2.19718e-10
-1.38126e-13
6.27127e-11
1.67913e-10
-6.73612e-14
3.52309e-11
1.22834e-10
-2.68581e-14
1.7e-11
8.87592e-11
-1.12226e-14
6.13129e-12
6.41878e-11
-9.58541e-15
4.17689e-11
2.63927e-10
-2.36986e-14
5.94006e-11
2.67152e-10
-5.30279e-14
7.65875e-11
2.69513e-10
-1.12672e-13
9.37007e-11
2.69034e-10
-1.69976e-13
1.03353e-10
2.5777e-10
-1.83917e-13
9.61805e-11
2.27252e-10
-1.08854e-13
7.30862e-11
1.82379e-10
-5.54661e-14
4.64325e-11
1.37313e-10
-2.19228e-14
2.58364e-11
1.00641e-10
-8.76894e-15
1.25096e-11
7.33146e-11
-3.0095e-15
4.52685e-12
5.35268e-11
-2.25014e-15
3.28537e-11
2.38935e-10
-6.10635e-15
4.70334e-11
2.44861e-10
-1.66695e-14
6.13177e-11
2.4901e-10
-3.895e-14
7.69349e-11
2.50982e-10
-7.59814e-14
8.9673e-11
2.46536e-10
-1.00624e-13
9.17669e-11
2.27805e-10
-7.55978e-14
7.84841e-11
1.92683e-10
-3.94733e-14
5.58662e-11
1.5072e-10
-1.50399e-14
3.44811e-11
1.12817e-10
-5.64351e-15
1.90649e-11