/*--------------------------------*- C++ -*----------------------------------*\
  =========                 |
  \\      /  F ield         | OpenFOAM: The Open Source CFD Toolbox
   \\    /   O peration     | Website:  https://openfoam.org
    \\  /    A nd           | Version:  7
     \\/     M anipulation  |
\*---------------------------------------------------------------------------*/
FoamFile
{
    version     2.0;
    format      ascii;
    class       volVectorField;
    location    "100";
    object      U;
}
// * * * * * * * * * * * * * * * * * * * * * * * * * * * * * * * * * * * * * //

dimensions      [0 1 -1 0 0 0 0];

internalField   nonuniform List<vector> 
44002
(
(0.140353 -0.00117679 0.200509)
(0.257652 -0.000986524 0.0309473)
(0.066418 -0.000299205 0.11949)
(0.047585 -6.27648e-05 0.0982665)
(0.0359146 -1.22558e-05 0.0787262)
(0.0288723 -5.76492e-06 0.0662341)
(0.140726 -0.0024161 0.20524)
(0.261135 -0.00213371 0.0314324)
(0.111451 -0.000255627 0.121097)
(0.170883 -0.000416799 0.0616259)
(0.145304 -0.000115584 0.0160263)
(0.0664 -0.000727167 0.119871)
(0.0663254 -8.73857e-05 0.0998931)
(0.0475765 -0.000165322 0.0983105)
(0.0487319 -1.18347e-05 0.0812026)
(0.0359143 -3.88244e-05 0.0787367)
(0.037877 -6.32388e-06 0.0684759)
(0.0288722 -1.67624e-05 0.0662354)
(0.0306637 -1.88543e-06 0.058377)
(0.0254357 -9.71156e-07 0.0504979)
(0.021393 -4.38241e-07 0.0441259)
(0.14102 -0.00198672 0.208023)
(0.263322 -0.00204258 0.0317645)
(0.111503 -0.000657546 0.121568)
(0.171275 -0.00091394 0.0620531)
(0.145613 -0.000340332 0.0160564)
(0.087371 -5.63558e-05 0.0951696)
(0.130696 -0.00017256 0.0697133)
(0.13216 -5.80307e-05 0.0374775)
(0.121564 -5.38861e-05 0.00614313)
(0.0663697 -0.000864684 0.120229)
(0.0663296 -0.000221233 0.09997)
(0.061323 -1.62514e-05 0.0791168)
(0.0475639 -0.000234839 0.0983832)
(0.0487309 -4.0674e-05 0.0812153)
(0.0471197 -5.86059e-06 0.0682617)
(0.0359129 -6.60824e-05 0.0787537)
(0.037877 -1.8779e-05 0.0684777)
(0.037664 -1.77337e-06 0.0586583)
(0.0288717 -2.74016e-05 0.0662386)
(0.0306638 -6.08923e-06 0.0583777)
(0.0309456 -8.62402e-07 0.050944)
(0.0254357 -2.9848e-06 0.0504981)
(0.0258386 -3.62358e-07 0.0445415)
(0.021393 -1.35502e-06 0.044126)
(0.0217464 -1.84016e-07 0.0392001)
(0.141235 -0.00151469 0.209424)
(0.264503 -0.00184075 0.0320285)
(0.111577 -0.000795147 0.121964)
(0.171615 -0.00103252 0.0624429)
(0.145919 -0.000464095 0.0161082)
(0.0873793 -0.000163809 0.095238)
(0.130765 -0.00041026 0.0698352)
(0.132265 -0.00017647 0.0375159)
(0.121589 -0.000136953 0.00614987)
(0.072265 -6.40152e-06 0.0739758)
(0.0987167 -6.43827e-05 0.0697733)
(0.116491 -2.13838e-05 0.0475764)
(0.115162 -3.9163e-05 0.0176854)
(0.0977227 -2.70327e-06 0.00336867)
(0.0663473 -0.000835718 0.120558)
(0.0663304 -0.000299289 0.100082)
(0.0613253 -5.1801e-05 0.0791346)
(0.0550929 -6.87309e-06 0.0655422)
(0.0475481 -0.000281544 0.0984675)
(0.0487285 -7.24251e-05 0.0812364)
(0.0471195 -1.84717e-05 0.0682635)
(0.0440446 -1.50451e-06 0.0573544)
(0.0359104 -8.98323e-05 0.0787776)
(0.0378767 -3.11519e-05 0.0684818)
(0.0376641 -6.10812e-06 0.0586591)
(0.0361251 -7.82534e-07 0.0502801)
(0.0288709 -3.79938e-05 0.0662437)
(0.0306637 -1.08755e-05 0.0583791)
(0.0309457 -2.8424e-06 0.0509441)
(0.0301361 -2.81518e-07 0.0441943)
(0.0254357 -5.16359e-06 0.0504985)
(0.0258386 -1.22532e-06 0.0445416)
(0.0253759 -1.28341e-07 0.0389899)
(0.0213931 -2.36055e-06 0.0441261)
(0.0217465 -6.10823e-07 0.0392001)
(0.0214219 -5.4053e-08 0.0344908)
(0.141364 -0.00107238 0.210023)
(0.265042 -0.00148162 0.0322263)
(0.111643 -0.000743722 0.122293)
(0.171903 -0.00106826 0.0628333)
(0.146238 -0.000467703 0.0161543)
(0.0873939 -0.000244741 0.0953459)
(0.130875 -0.00051992 0.0699754)
(0.13239 -0.000272936 0.0375868)
(0.121638 -0.000188122 0.00615993)
(0.0722644 -3.29749e-05 0.0739873)
(0.0987268 -0.000158837 0.069815)
(0.116533 -8.28897e-05 0.0475901)
(0.115173 -0.00010121 0.0176972)
(0.0977326 -1.56434e-05 0.00336824)
(0.0610927 -4.60044e-06 0.0616077)
(0.0793586 -1.79783e-05 0.0629512)
(0.0981124 -1.7885e-05 0.0523267)
(0.106056 -2.47791e-05 0.02787)
(0.0959598 -3.60853e-06 0.0103293)
(0.0837371 -3.46567e-06 0.00193086)
(0.0663355 -0.00072574 0.120816)
(0.0663317 -0.000345437 0.100206)
(0.0613266 -8.70854e-05 0.0791627)
(0.0550934 -2.08168e-05 0.0655447)
(0.0491206 -1.81134e-06 0.0549361)
(0.0475314 -0.000301869 0.0985505)
(0.048725 -9.90838e-05 0.0812658)
(0.0471191 -3.19473e-05 0.068268)
(0.0440446 -5.68818e-06 0.0573551)
(0.0404823 -7.38741e-07 0.0487729)
(0.035907 -0.000108746 0.0788064)
(0.0378761 -4.33095e-05 0.0684884)
(0.0376641 -1.13621e-05 0.0586607)
(0.0361252 -2.73949e-06 0.0502802)
(0.0339044 -2.52093e-07 0.0431949)
(0.0288697 -4.77831e-05 0.0662508)
(0.0306636 -1.59068e-05 0.0583813)
(0.0309457 -5.16703e-06 0.0509446)
(0.0301362 -1.07716e-06 0.0441943)
(0.0286765 -9.42848e-08 0.0382926)
(0.0254357 -7.50679e-06 0.0504992)
(0.0258386 -2.27248e-06 0.0445417)
(0.0253759 -5.00413e-07 0.0389899)
(0.0243531 -2.42777e-08 0.0339698)
(0.0213931 -3.45757e-06 0.0441264)
(0.0217465 -1.12043e-06 0.0392002)
(0.0214219 -2.25043e-07 0.0344908)
(0.0206492 -1.72629e-09 0.030124)
(0.14143 -0.000760268 0.210271)
(0.265283 -0.00114624 0.03237)
(0.111689 -0.000632608 0.12253)
(0.172107 -0.000987841 0.0631543)
(0.146518 -0.000428343 0.0161872)
(0.0874118 -0.000288457 0.0954594)
(0.130984 -0.00057906 0.0701419)
(0.13254 -0.000324849 0.037659)
(0.121695 -0.000222701 0.00617198)
(0.0722658 -6.86887e-05 0.0740099)
(0.0987486 -0.000216158 0.0698734)
(0.11659 -0.000151965 0.0476192)
(0.115198 -0.000144584 0.0177149)
(0.0977483 -3.45051e-05 0.00336868)
(0.0610928 -1.6145e-05 0.0616084)
(0.0793575 -4.96107e-05 0.062964)
(0.0981258 -5.44482e-05 0.05233)
(0.106059 -6.65891e-05 0.0278776)
(0.0959669 -1.56712e-05 0.0103289)
(0.0837374 -1.07228e-05 0.001931)
(0.0527658 -1.44662e-06 0.0522026)
(0.0656232 -6.59905e-06 0.0557948)
(0.0822087 -7.22316e-06 0.0515092)
(0.0940022 -1.618e-05 0.035347)
(0.0921407 -3.43631e-06 0.0175451)
(0.0829773 -3.1654e-06 0.00616429)
(0.0728952 -6.29185e-07 0.00122712)
(0.0663322 -0.000598387 0.121008)
(0.0663338 -0.000357294 0.100321)
(0.061328 -0.000115076 0.0792003)
(0.0550939 -3.48579e-05 0.0655505)
(0.0491207 -6.31752e-06 0.054937)
(0.0438021 -8.62616e-07 0.0468635)
(0.0475154 -0.000301044 0.0986252)
(0.0487208 -0.000119731 0.0813008)
(0.0471184 -4.50008e-05 0.0682755)
(0.0440445 -1.1151e-05 0.0573568)
(0.0404823 -2.66418e-06 0.048773)
(0.0369292 -2.62799e-07 0.0418227)
(0.0359028 -0.000121803 0.0788381)
(0.0378752 -5.4408e-05 0.0684975)
(0.037664 -1.6848e-05 0.0586633)
(0.0361252 -5.17232e-06 0.0502807)
(0.0339044 -1.0263e-06 0.043195)
(0.0314429 -9.45601e-08 0.0372663)
(0.0288681 -5.63003e-05 0.0662598)
(0.0306633 -2.10519e-05 0.0583845)
(0.0309457 -7.66606e-06 0.0509453)
(0.0301362 -2.14797e-06 0.0441945)
(0.0286765 -4.32218e-07 0.0382926)
(0.0269096 -1.44336e-08 0.0331759)
(0.0254356 -9.96576e-06 0.0505002)
(0.0258387 -3.41785e-06 0.044542)
(0.0253759 -1.00948e-06 0.03899)
(0.0243531 -1.62067e-07 0.0339698)
(0.0230399 1.04254e-08 0.0294911)
(0.021393 -4.63544e-06 0.0441268)
(0.0217465 -1.68128e-06 0.0392003)
(0.0214219 -4.69471e-07 0.0344908)
(0.0206492 -5.74435e-08 0.030124)
(0.0196431 1.59072e-08 0.0261323)
(0.141453 -0.000540233 0.21038)
(0.265394 -0.000861543 0.0324681)
(0.111713 -0.000518132 0.122699)
(0.172245 -0.000857921 0.0634039)
(0.14675 -0.000377261 0.0162072)
(0.0874297 -0.000303664 0.0955612)
(0.131074 -0.000576105 0.0703074)
(0.132692 -0.000340964 0.0377197)
(0.121751 -0.000237811 0.00618398)
(0.0722685 -9.6061e-05 0.0740408)
(0.0987772 -0.00026133 0.0699489)
(0.116663 -0.000199403 0.0476584)
(0.115232 -0.000179532 0.0177374)
(0.0977701 -5.05481e-05 0.0033695)
(0.0610934 -2.97492e-05 0.0616126)
(0.0793603 -7.63955e-05 0.062983)
(0.0981454 -9.0328e-05 0.0523425)
(0.106071 -9.96994e-05 0.0278899)
(0.0959784 -3.2029e-05 0.0103301)
(0.0837392 -1.83504e-05 0.00193124)
(0.0527658 -5.51421e-06 0.0522031)
(0.0656232 -1.90203e-05 0.0557976)
(0.0822115 -2.35811e-05 0.0515121)
(0.094005 -4.28451e-05 0.0353513)
(0.092145 -1.36549e-05 0.0175449)
(0.0829777 -9.91627e-06 0.00616456)
(0.0728956 -2.63986e-06 0.00122715)
(0.0461733 -7.90913e-07 0.0449692)
(0.0557761 -1.85964e-06 0.048831)
(0.0688924 -4.31886e-06 0.0484945)
(0.0817659 -8.17694e-06 0.0391632)
(0.0859177 -4.26616e-06 0.0240729)
(0.0811061 -2.79036e-06 0.0110337)
(0.0725614 -5.65256e-07 0.00396069)
(0.0646642 -3.94204e-07 0.000810513)
(0.0663334 -0.000478695 0.121143)
(0.066337 -0.000345291 0.100419)
(0.0613295 -0.000134916 0.0792435)
(0.0550945 -4.82271e-05 0.0655596)
(0.0491207 -1.18195e-05 0.0549388)
(0.0438021 -2.88732e-06 0.0468636)
(0.0391967 -3.22877e-07 0.0403679)
(0.0475013 -0.000284206 0.0986879)
(0.0487164 -0.000133182 0.0813389)
(0.0471176 -5.68862e-05 0.0682858)
(0.0440444 -1.6826e-05 0.0573596)
(0.0404823 -5.11866e-06 0.0487734)
(0.0369292 -1.04452e-06 0.0418228)
(0.0336116 -1.1101e-07 0.0361179)
(0.0358982 -0.000128727 0.0788706)
(0.0378739 -6.38384e-05 0.0685088)
(0.0376639 -2.24647e-05 0.0586671)
(0.0361252 -7.782e-06 0.0502815)
(0.0339044 -2.11162e-06 0.0431952)
(0.0314429 -4.32373e-07 0.0372663)
(0.0289972 -2.21135e-08 0.0322461)
(0.0288662 -6.30749e-05 0.0662703)
(0.0306629 -2.60844e-05 0.0583887)
(0.0309456 -1.03198e-05 0.0509464)
(0.0301362 -3.32146e-06 0.0441948)
(0.0286765 -9.39594e-07 0.0382927)
(0.0269096 -1.405e-07 0.033176)
(0.0250712 1.02757e-08 0.0287251)
(0.0254355 -1.24865e-05 0.0505016)
(0.0258387 -4.66957e-06 0.0445425)
(0.025376 -1.57221e-06 0.0389901)
(0.0243531 -3.98343e-07 0.0339698)
(0.0230399 -3.05894e-08 0.0294911)
(0.0216398 1.95685e-08 0.0254968)
(0.021393 -5.88139e-06 0.0441274)
(0.0217465 -2.29871e-06 0.0392005)
(0.021422 -7.41435e-07 0.0344909)
(0.0206492 -1.69682e-07 0.030124)
(0.0196431 8.37911e-09 0.0261323)
(0.0185737 1.86828e-08 0.0225033)
(0.141451 -0.000387141 0.210438)
(0.265454 -0.000638548 0.0325335)
(0.111721 -0.000418161 0.122815)
(0.172335 -0.000709249 0.0635877)
(0.146935 -0.00032641 0.0162177)
(0.0874457 -0.000298386 0.095646)
(0.131142 -0.000534699 0.0704595)
(0.132835 -0.000331549 0.0377661)
(0.121803 -0.000238566 0.00619481)
(0.072272 -0.000116836 0.0740768)
(0.0988084 -0.0002845 0.0700317)
(0.116742 -0.000227756 0.0477021)
(0.115273 -0.000200561 0.0177617)
(0.097796 -6.44392e-05 0.00337056)
(0.0610944 -4.25996e-05 0.0616198)
(0.0793655 -0.000100448 0.0630097)
(0.0981726 -0.000121609 0.0523623)
(0.106089 -0.000128559 0.0279073)
(0.095995 -4.71762e-05 0.0103322)
(0.0837425 -2.58877e-05 0.00193159)
(0.0527659 -1.08401e-05 0.0522046)
(0.065624 -3.08214e-05 0.0558027)
(0.0822166 -4.17905e-05 0.0515186)
(0.0940112 -6.408e-05 0.0353589)
(0.0921525 -2.70962e-05 0.017546)
(0.0829794 -1.71756e-05 0.0061651)
(0.0728965 -5.47804e-06 0.00122718)
(0.0461733 -2.71214e-06 0.0449693)
(0.055776 -6.14347e-06 0.0488318)
(0.068893 -1.30496e-05 0.0484955)
(0.0817666 -2.23595e-05 0.0391658)
(0.0859204 -1.34129e-05 0.0240728)
(0.0811065 -8.74436e-06 0.0110339)
(0.0725618 -2.50079e-06 0.0039607)
(0.0646643 -1.41083e-06 0.000810542)
(0.0408319 -3.05809e-07 0.0390323)
(0.048241 -7.63081e-07 0.0428058)
(0.0584857 -1.70143e-06 0.0442639)
(0.0702308 -4.38308e-06 0.0400032)
(0.0780543 -3.34586e-06 0.0289404)
(0.0777408 -2.59536e-06 0.0161016)
(0.0716603 -6.0696e-07 0.00723745)
(0.0644939 -3.29844e-07 0.00262891)
(0.0580882 -1.20999e-07 0.000551721)
(0.0663359 -0.000376919 0.121235)
(0.0663406 -0.000317331 0.100498)
(0.0613311 -0.000146292 0.079289)
(0.0550953 -6.00356e-05 0.0655717)
(0.0491208 -1.75106e-05 0.0549419)
(0.0438021 -5.30239e-06 0.0468641)
(0.0391967 -1.15018e-06 0.040368)
(0.0352338 -1.40547e-07 0.0350136)
(0.0474895 -0.0002572 0.0987379)
(0.048712 -0.000139447 0.0813773)
(0.0471166 -6.6832e-05 0.0682986)
(0.0440443 -2.26615e-05 0.0573635)
(0.0404822 -7.74965e-06 0.0487742)
(0.0369292 -2.1242e-06 0.0418229)
(0.0336116 -4.62294e-07 0.0361179)
(0.0306185 -3.38098e-08 0.0313138)
(0.0358936 -0.000129847 0.078902)
(0.0378723 -7.10613e-05 0.0685219)
(0.0376637 -2.79173e-05 0.058672)
(0.0361252 -1.05682e-05 0.0502827)
(0.0339044 -3.30095e-06 0.0431955)
(0.0314429 -9.38953e-07 0.0372663)
(0.0289972 -1.54994e-07 0.0322461)
(0.0267081 3.14433e-09 0.0279262)
(0.0288639 -6.77828e-05 0.0662819)
(0.0306624 -3.07649e-05 0.0583939)
(0.0309455 -1.30493e-05 0.050948)
(0.0301362 -4.62393e-06 0.0441953)
(0.0286765 -1.50179e-06 0.0382928)
(0.0269096 -3.72501e-07 0.033176)
(0.0250712 -2.98611e-08 0.0287251)
(0.0233111 1.68969e-08 0.0248097)
(0.0254353 -1.49938e-05 0.0505034)
(0.0258387 -6.00494e-06 0.0445431)
(0.025376 -2.2058e-06 0.0389903)
(0.0243531 -6.62842e-07 0.0339699)
(0.0230399 -1.37014e-07 0.0294911)
(0.0216398 1.7108e-08 0.0254968)
(0.0202923 1.86908e-08 0.0219183)
(0.021393 -7.17393e-06 0.0441281)
(0.0217465 -2.96665e-06 0.0392007)
(0.021422 -1.05196e-06 0.0344909)
(0.0206492 -2.96459e-07 0.030124)
(0.0196431 -3.98406e-08 0.0261323)
(0.0185737 2.80376e-08 0.0225033)
(0.0175586 1.63804e-08 0.0192128)
(0.141436 -0.000278276 0.210477)
(0.265492 -0.000469024 0.032577)
(0.111718 -0.000336101 0.122895)
(0.172393 -0.00056768 0.0637204)
(0.147078 -0.000279502 0.0162224)
(0.0874584 -0.000279395 0.0957135)
(0.13119 -0.00047089 0.070589)
(0.13296 -0.000306078 0.0377996)
(0.121848 -0.000228578 0.00620392)
(0.0722759 -0.000129967 0.0741151)
(0.0988391 -0.000288942 0.0701147)
(0.116822 -0.000237904 0.0477454)
(0.115315 -0.000208976 0.0177854)
(0.0978245 -7.51979e-05 0.0033717)
(0.0610958 -5.4289e-05 0.0616299)
(0.0793727 -0.000118902 0.0630422)
(0.098205 -0.000145546 0.0523877)
(0.106113 -0.000149291 0.0279284)
(0.0960159 -6.08391e-05 0.0103351)
(0.0837474 -3.2973e-05 0.00193204)
(0.0527661 -1.63381e-05 0.0522072)
(0.0656255 -4.24432e-05 0.0558105)
(0.0822244 -5.93231e-05 0.0515288)
(0.0940211 -8.43047e-05 0.0353704)
(0.0921636 -4.01505e-05 0.0175481)
(0.0829824 -2.44503e-05 0.00616595)
(0.0728981 -8.5039e-06 0.00122723)
(0.0461733 -5.05677e-06 0.0449697)
(0.0557761 -1.11147e-05 0.0488335)
(0.0688944 -2.2096e-05 0.0484978)
(0.0817687 -3.4726e-05 0.0391701)
(0.0859248 -2.33859e-05 0.0240738)
(0.0811079 -1.5201e-05 0.0110345)
(0.0725626 -5.3077e-06 0.00396075)
(0.0646645 -2.70916e-06 0.000810567)
(0.0408319 -1.10709e-06 0.0390323)
(0.048241 -2.6196e-06 0.042806)
(0.0584857 -5.44037e-06 0.0442644)
(0.0702311 -1.20611e-05 0.0400043)
(0.0780555 -9.98133e-06 0.0289408)
(0.0777413 -7.76011e-06 0.0161018)
(0.0716606 -2.49975e-06 0.0072374)
(0.0644939 -1.29092e-06 0.00262894)
(0.0580882 -5.05241e-07 0.000551738)
(0.036418 -1.30449e-07 0.034047)
(0.0423066 -2.65795e-07 0.0375673)
(0.050323 -8.00464e-07 0.039858)
(0.0603131 -1.92296e-06 0.0386631)
(0.0693761 -2.54976e-06 0.0317566)
(0.0728894 -2.12855e-06 0.0207245)
(0.0699029 -7.33135e-07 0.0109202)
(0.0640225 -3.25099e-07 0.00485706)
(0.0579965 -8.19393e-08 0.00179314)
(0.0527769 -4.48354e-08 0.000381658)
(0.0663378 -0.000294354 0.121294)
(0.0663441 -0.000281007 0.100559)
(0.0613328 -0.000149949 0.0793335)
(0.0550961 -6.96237e-05 0.0655862)
(0.049121 -2.3276e-05 0.0549461)
(0.0438022 -7.89635e-06 0.0468649)
(0.0391967 -2.20603e-06 0.0403682)
(0.0352338 -5.13871e-07 0.0350136)
(0.031836 -4.949e-08 0.0304684)
(0.0474801 -0.000225122 0.0987757)
(0.0487081 -0.000139206 0.0814136)
(0.0471155 -7.42734e-05 0.0683131)
(0.0440442 -2.83048e-05 0.0573688)
(0.0404822 -1.05643e-05 0.0487754)
(0.0369292 -3.30775e-06 0.0418232)
(0.0336116 -9.63764e-07 0.0361179)
(0.0306185 -1.76938e-07 0.0313138)
(0.0279769 -3.83315e-09 0.0271757)
(0.0358891 -0.000125984 0.0789307)
(0.0378705 -7.57433e-05 0.0685361)
(0.0376633 -3.2927e-05 0.0586781)
(0.0361251 -1.34311e-05 0.0502844)
(0.0339044 -4.62712e-06 0.043196)
(0.0314429 -1.5004e-06 0.0372664)
(0.0289972 -3.85597e-07 0.0322461)
(0.0267081 -4.37066e-08 0.0279262)
(0.0246502 1.15419e-08 0.0241398)
(0.0288616 -7.02668e-05 0.066294)
(0.0306617 -3.48492e-05 0.0584)
(0.0309454 -1.5764e-05 0.05095)
(0.0301362 -6.02282e-06 0.044196)
(0.0286765 -2.14309e-06 0.038293)
(0.0269096 -6.32875e-07 0.033176)
(0.0250712 -1.34185e-07 0.0287251)
(0.0233111 1.21787e-08 0.0248097)
(0.0217196 1.57762e-08 0.021325)
(0.0254351 -1.7398e-05 0.0505056)
(0.0258386 -7.39798e-06 0.0445439)
(0.025376 -2.89934e-06 0.0389905)
(0.0243531 -9.72323e-07 0.0339699)
(0.0230399 -2.57954e-07 0.0294911)
(0.0216398 -2.80356e-08 0.0254968)
(0.0202923 2.8601e-08 0.0219183)
(0.0190838 1.50811e-08 0.0186993)
(0.0213929 -8.48356e-06 0.0441291)
(0.0217465 -3.67785e-06 0.0392011)
(0.021422 -1.39674e-06 0.0344911)
(0.0206492 -4.48246e-07 0.0301241)
(0.0196431 -9.55145e-08 0.0261323)
(0.0185737 9.24444e-09 0.0225033)
(0.0175586 2.96384e-08 0.0192128)
(0.0166679 1.29975e-08 0.0162409)
(0.141416 -0.000199619 0.210507)
(0.265518 -0.000342688 0.0326064)
(0.111707 -0.000269606 0.122949)
(0.172428 -0.000444964 0.0638154)
(0.147186 -0.000236986 0.0162238)
(0.0874677 -0.000252389 0.0957657)
(0.131221 -0.00039948 0.0706934)
(0.133062 -0.000272482 0.0378231)
(0.121888 -0.000211613 0.00621126)
(0.0722797 -0.000136041 0.0741532)
(0.098867 -0.000277648 0.0701917)
(0.116894 -0.000233623 0.0477851)
(0.115357 -0.000206347 0.0178072)
(0.097854 -8.26145e-05 0.00337281)
(0.0610977 -6.40093e-05 0.0616424)
(0.0793812 -0.000131067 0.0630784)
(0.0982403 -0.000160716 0.0524163)
(0.106141 -0.000161502 0.0279515)
(0.0960399 -7.18473e-05 0.0103385)
(0.0837539 -3.92512e-05 0.00193255)
(0.0527664 -2.19614e-05 0.0522109)
(0.0656279 -5.29548e-05 0.055821)
(0.0822345 -7.50666e-05 0.0515428)
(0.0940347 -0.000100788 0.0353853)
(0.0921782 -5.24449e-05 0.0175515)
(0.082987 -3.14036e-05 0.0061671)
(0.0729003 -1.17499e-05 0.0012273)
(0.0461734 -7.57232e-06 0.0449705)
(0.0557763 -1.62822e-05 0.0488361)
(0.0688966 -3.13228e-05 0.0485017)
(0.0817725 -4.71351e-05 0.0391767)
(0.0859315 -3.3529e-05 0.0240757)
(0.0811104 -2.1786e-05 0.0110354)
(0.072564 -8.29108e-06 0.00396085)
(0.0646648 -4.12665e-06 0.000810598)
(0.0408319 -2.14209e-06 0.0390325)
(0.048241 -4.88118e-06 0.0428065)
(0.0584859 -9.66013e-06 0.0442654)
(0.070232 -1.89293e-05 0.0400062)
(0.0780575 -1.68077e-05 0.0289418)
(0.0777425 -1.30706e-05 0.0161023)
(0.0716614 -5.14534e-06 0.00723742)
(0.0644941 -2.5964e-06 0.00262898)
(0.0580883 -1.0576e-06 0.000551752)
(0.036418 -4.90848e-07 0.034047)
(0.0423066 -1.02252e-06 0.0375674)
(0.050323 -2.58108e-06 0.0398582)
(0.0603131 -5.52614e-06 0.0386636)
(0.0693766 -7.21325e-06 0.0317569)
(0.0728898 -6.18873e-06 0.0207247)
(0.0699032 -2.61635e-06 0.0109201)
(0.0640225 -1.25715e-06 0.00485705)
(0.0579965 -4.36314e-07 0.00179316)
(0.0527769 -2.05785e-07 0.00038167)
(0.0327349 -4.3138e-08 0.0297512)
(0.0375109 -1.01199e-07 0.0330129)
(0.043887 -3.12015e-07 0.0355979)
(0.0520797 -8.86212e-07 0.0361518)
(0.0609049 -1.49854e-06 0.0325585)
(0.0668354 -1.70641e-06 0.02429)
(0.0670792 -7.95956e-07 0.0146956)
(0.0630668 -3.38843e-07 0.00747647)
(0.0577397 -8.40445e-08 0.00333093)
(0.052725 -1.88445e-08 0.0012418)
(0.0484422 -3.70682e-09 0.000266364)
(0.0663382 -0.000229278 0.121331)
(0.066347 -0.00024192 0.100604)
(0.0613344 -0.000147164 0.0793747)
(0.0550971 -7.65319e-05 0.0656024)
(0.0491212 -2.87906e-05 0.0549517)
(0.0438022 -1.06474e-05 0.0468662)
(0.0391967 -3.36757e-06 0.0403685)
(0.0352338 -1.00297e-06 0.0350137)
(0.031836 -2.04658e-07 0.0304684)
(0.0289354 -1.25977e-08 0.02652)
(0.0474729 -0.000192017 0.0988026)
(0.0487047 -0.000133651 0.0814463)
(0.0471145 -7.88927e-05 0.0683288)
(0.044044 -3.34549e-05 0.0573752)
(0.0404822 -1.34531e-05 0.0487772)
(0.0369291 -4.625e-06 0.0418237)
(0.0336116 -1.51956e-06 0.036118)
(0.0306185 -4.05168e-07 0.0313138)
(0.0279769 -5.70281e-08 0.0271757)
(0.0256898 7.44449e-09 0.0235356)
(0.0358851 -0.000118283 0.0789558)
(0.0378687 -7.77807e-05 0.0685506)
(0.0376629 -3.72162e-05 0.0586851)
(0.036125 -1.62682e-05 0.0502866)
(0.0339044 -6.0529e-06 0.0431967)
(0.0314429 -2.14078e-06 0.0372666)
(0.0289972 -6.44166e-07 0.0322462)
(0.0267081 -1.47526e-07 0.0279262)
(0.0246502 1.48765e-09 0.0241398)
(0.0228614 1.23032e-08 0.02077)
(0.0288591 -7.05608e-05 0.066306)
(0.0306608 -3.81192e-05 0.0584067)
(0.0309452 -1.83558e-05 0.0509526)
(0.0301362 -7.48787e-06 0.0441968)
(0.0286765 -2.84955e-06 0.0382932)
(0.0269096 -9.40163e-07 0.0331761)
(0.0250712 -2.52789e-07 0.0287251)
(0.0233111 -3.22447e-08 0.0248097)
(0.0217196 2.27952e-08 0.021325)
(0.020346 1.27154e-08 0.0181985)
(0.0254348 -1.95997e-05 0.0505082)
(0.0258386 -8.81206e-06 0.044545)
(0.025376 -3.64423e-06 0.0389909)
(0.0243532 -1.32045e-06 0.0339701)
(0.0230399 -4.06069e-07 0.0294911)
(0.0216398 -8.05291e-08 0.0254968)
(0.0202923 1.098e-08 0.0219183)
(0.0190838 2.71932e-08 0.0186993)
(0.0180592 1.12971e-08 0.0158034)
(0.0213928 -9.7726e-06 0.0441302)
(0.0217465 -4.42065e-06 0.0392015)
(0.021422 -1.77354e-06 0.0344912)
(0.0206492 -6.21829e-07 0.0301241)
(0.0196431 -1.67047e-07 0.0261323)
(0.0185737 -1.3381e-08 0.0225033)
(0.0175586 2.36806e-08 0.0192128)
(0.0166679 2.54742e-08 0.0162409)
(0.0159328 9.67448e-09 0.0135753)
(0.141394 -0.000142031 0.210531)
(0.265538 -0.000249419 0.032627)
(0.111694 -0.00021595 0.122985)
(0.17245 -0.00034496 0.0638836)
(0.147267 -0.000199001 0.0162236)
(0.0874738 -0.000221651 0.0958052)
(0.131242 -0.000329962 0.0707741)
(0.133144 -0.000236196 0.0378394)
(0.121922 -0.000190654 0.00621703)
(0.0722833 -0.000135923 0.0741891)
(0.0988911 -0.000255478 0.070259)
(0.116958 -0.00021911 0.0478192)
(0.115395 -0.000195444 0.0178262)
(0.0978831 -8.66301e-05 0.00337386)
(0.0610998 -7.1283e-05 0.0616567)
(0.0793903 -0.000136698 0.063116)
(0.0982759 -0.0001669 0.0524458)
(0.10617 -0.000165288 0.0279749)
(0.0960656 -7.96835e-05 0.0103422)
(0.0837617 -4.4426e-05 0.00193311)
(0.0527669 -2.73701e-05 0.0522159)
(0.0656311 -6.18193e-05 0.0558338)
(0.0822466 -8.77792e-05 0.0515598)
(0.0940512 -0.000112895 0.0354027)
(0.0921956 -6.2926e-05 0.0175558)
(0.082993 -3.76597e-05 0.00616849)
(0.0729032 -1.50444e-05 0.00122739)
(0.0461736 -1.02475e-05 0.0449717)
(0.0557769 -2.15171e-05 0.0488398)
(0.0688998 -4.01892e-05 0.0485075)
(0.0817781 -5.83439e-05 0.0391856)
(0.0859405 -4.33008e-05 0.0240789)
(0.0811142 -2.82179e-05 0.0110368)
(0.0725661 -1.14987e-05 0.00396101)
(0.0646654 -5.6752e-06 0.000810633)
(0.040832 -3.27793e-06 0.0390328)
(0.0482411 -7.29613e-06 0.0428072)
(0.0584863 -1.41208e-05 0.0442672)
(0.0702336 -2.60523e-05 0.0400093)
(0.0780608 -2.39456e-05 0.0289436)
(0.0777446 -1.85965e-05 0.0161032)
(0.0716626 -7.97346e-06 0.00723751)
(0.0644945 -4.00828e-06 0.00262903)
(0.0580885 -1.67578e-06 0.000551767)
(0.036418 -9.72613e-07 0.034047)
(0.0423066 -2.04093e-06 0.0375676)
(0.050323 -4.62302e-06 0.0398586)
(0.0603133 -9.04443e-06 0.0386645)
(0.0693775 -1.16459e-05 0.0317576)
(0.0728906 -1.02192e-05 0.0207251)
(0.0699038 -5.0003e-06 0.0109202)
(0.0640227 -2.51494e-06 0.00485707)
(0.0579966 -1.00036e-06 0.00179317)
(0.0527769 -4.5058e-07 0.000381679)
(0.0327349 -1.91232e-07 0.0297512)
(0.0375109 -4.32825e-07 0.0330129)
(0.043887 -1.08201e-06 0.0355979)
(0.0520797 -2.63172e-06 0.036152)
(0.060905 -4.2388e-06 0.0325588)
(0.0668357 -4.77961e-06 0.0242902)
(0.0670795 -2.56318e-06 0.0146956)
(0.0630669 -1.24307e-06 0.00747645)
(0.0577397 -4.33851e-07 0.00333093)
(0.052725 -1.60385e-07 0.00124181)
(0.0484422 -5.32635e-08 0.000266372)
(0.0296497 -8.24e-09 0.0259755)
(0.0335784 -2.47125e-08 0.0289972)
(0.0387286 -1.24143e-07 0.0316452)
(0.0453926 -3.63022e-07 0.0331035)
(0.0532393 -8.26151e-07 0.0318222)
(0.060197 -1.16556e-06 0.0264197)
(0.063148 -8.17126e-07 0.018123)
(0.0614311 -3.61278e-07 0.0103646)
(0.0572072 -9.26616e-08 0.00518393)
(0.0525788 -1.9299e-08 0.00231384)
(0.0484118 1.37071e-08 0.000867217)
(0.0449027 1.03821e-08 0.000186284)
(0.0663371 -0.000178842 0.121354)
(0.0663491 -0.000203948 0.100635)
(0.0613359 -0.000139461 0.0794112)
(0.0550981 -8.05645e-05 0.0656194)
(0.0491215 -3.37703e-05 0.0549584)
(0.0438023 -1.34594e-05 0.046868)
(0.0391968 -4.65027e-06 0.040369)
(0.0352338 -1.54736e-06 0.0350138)
(0.031836 -4.27011e-07 0.0304684)
(0.0289354 -7.26295e-08 0.02652)
(0.0264798 2.41591e-09 0.0230205)
(0.0474673 -0.000160657 0.0988208)
(0.0487019 -0.000124232 0.0814743)
(0.0471135 -8.06494e-05 0.0683446)
(0.0440438 -3.78182e-05 0.0573826)
(0.0404822 -1.63086e-05 0.0487794)
(0.0369291 -6.0393e-06 0.0418244)
(0.0336116 -2.14991e-06 0.0361182)
(0.0306185 -6.60883e-07 0.0313139)
(0.0279769 -1.59894e-07 0.0271757)
(0.0256898 -6.49615e-09 0.0235356)
(0.0237503 1.00968e-08 0.0202824)
(0.0358816 -0.000108014 0.0789766)
(0.0378669 -7.73076e-05 0.0685648)
(0.0376624 -4.05528e-05 0.0586928)
(0.036125 -1.89578e-05 0.0502894)
(0.0339044 -7.54539e-06 0.0431976)
(0.0314429 -2.84601e-06 0.0372669)
(0.0289972 -9.4748e-07 0.0322463)
(0.0267081 -2.6534e-07 0.0279262)
(0.0246502 -4.31567e-08 0.0241398)
(0.0228614 1.58046e-08 0.02077)
(0.0213561 1.0374e-08 0.017742)
(0.0288567 -6.88747e-05 0.0663174)
(0.0306599 -4.04105e-05 0.0584139)
(0.030945 -2.07085e-05 0.0509556)
(0.0301362 -8.97578e-06 0.044198)
(0.0286765 -3.61157e-06 0.0382936)
(0.0269096 -1.28735e-06 0.0331762)
(0.0250712 -3.98164e-07 0.0287251)
(0.0233111 -8.38525e-08 0.0248097)
(0.0217196 5.06573e-09 0.021325)
(0.020346 2.23525e-08 0.0181985)
(0.0192092 9.38052e-09 0.0153869)
(0.0254344 -2.1499e-05 0.0505113)
(0.0258385 -1.02021e-05 0.0445463)
(0.025376 -4.42607e-06 0.0389913)
(0.0243532 -1.70462e-06 0.0339702)
(0.0230399 -5.77446e-07 0.0294912)
(0.0216398 -1.49314e-07 0.0254968)
(0.0202923 -1.03518e-08 0.0219183)
(0.0190838 2.13929e-08 0.0186993)
(0.0180592 2.198e-08 0.0158034)
(0.0172315 8.06727e-09 0.0132102)
(0.0213927 -1.09968e-05 0.0441316)
(0.0217465 -5.17911e-06 0.039202)
(0.021422 -2.17748e-06 0.0344914)
(0.0206492 -8.16555e-07 0.0301242)
(0.0196431 -2.52078e-07 0.0261323)
(0.0185737 -4.60105e-08 0.0225033)
(0.0175586 1.57549e-08 0.0192128)
(0.0166679 2.48004e-08 0.0162409)
(0.0159328 1.97404e-08 0.0135753)
(0.0153566 6.89912e-09 0.0112085)
(0.141374 -9.95911e-05 0.210551)
(0.265552 -0.000180882 0.0326418)
(0.11168 -0.000172809 0.12301)
(0.172463 -0.000266472 0.0639331)
(0.147327 -0.000165633 0.0162228)
(0.0874774 -0.000190379 0.0958343)
(0.131254 -0.000267755 0.0708345)
(0.133206 -0.00020078 0.0378506)
(0.12195 -0.000168087 0.0062215)
(0.0722863 -0.000130808 0.0742215)
(0.0989107 -0.000227137 0.0703152)
(0.11701 -0.000198334 0.047847)
(0.115429 -0.000179103 0.0178421)
(0.0979106 -8.74429e-05 0.00337482)
(0.0611022 -7.5843e-05 0.061672)
(0.0793993 -0.000136366 0.0631527)
(0.0983097 -0.000165013 0.0524742)
(0.106198 -0.00016181 0.0279971)
(0.0960917 -8.41457e-05 0.0103458)
(0.0837706 -4.82801e-05 0.00193369)
(0.0527675 -3.22866e-05 0.052222)
(0.0656348 -6.8536e-05 0.0558484)
(0.0822598 -9.66496e-05 0.051579)
(0.0940699 -0.000119966 0.0354217)
(0.092215 -7.09439e-05 0.0175609)
(0.0830005 -4.28941e-05 0.00617007)
(0.0729069 -1.82417e-05 0.00122749)
(0.0461738 -1.29856e-05 0.0449733)
(0.0557776 -2.656e-05 0.0488447)
(0.0689039 -4.8206e-05 0.0485151)
(0.0817854 -6.78679e-05 0.0391965)
(0.0859516 -5.20803e-05 0.0240832)
(0.0811193 -3.41603e-05 0.0110386)
(0.0725689 -1.47601e-05 0.00396124)
(0.0646663 -7.3068e-06 0.000810672)
(0.040832 -4.53185e-06 0.0390333)
(0.0482413 -9.8576e-06 0.0428084)
(0.058487 -1.87046e-05 0.0442698)
(0.070236 -3.28664e-05 0.0400136)
(0.0780653 -3.10194e-05 0.0289463)
(0.0777476 -2.40763e-05 0.0161046)
(0.0716644 -1.10197e-05 0.00723771)
(0.0644951 -5.5539e-06 0.0026291)
(0.0580887 -2.38089e-06 0.000551782)
(0.036418 -1.50712e-06 0.0340471)
(0.0423066 -3.1489e-06 0.0375679)
(0.0503231 -6.81985e-06 0.0398592)
(0.0603138 -1.27844e-05 0.038666)
(0.069379 -1.63477e-05 0.0317588)
(0.072892 -1.44805e-05 0.020726)
(0.0699049 -7.56381e-06 0.0109203)
(0.0640231 -3.87943e-06 0.00485712)
(0.0579968 -1.62195e-06 0.00179319)
(0.052777 -7.28642e-07 0.000381688)
(0.0327349 -4.1117e-07 0.0297512)
(0.0375109 -9.11143e-07 0.033013)
(0.043887 -2.03801e-06 0.0355981)
(0.0520798 -4.43451e-06 0.0361523)
(0.0609053 -6.8545e-06 0.0325593)
(0.0668362 -7.65511e-06 0.0242906)
(0.0670799 -4.59078e-06 0.0146956)
(0.0630671 -2.41861e-06 0.00747647)
(0.0577398 -9.85296e-07 0.00333093)
(0.052725 -4.13947e-07 0.00124182)
(0.0484422 -1.50368e-07 0.000266378)
(0.0296497 -6.37351e-08 0.0259755)
(0.0335784 -1.55884e-07 0.0289972)
(0.0387285 -4.66887e-07 0.0316452)
(0.0453926 -1.14753e-06 0.0331036)
(0.0532394 -2.3546e-06 0.0318224)
(0.0601971 -3.22159e-06 0.0264198)
(0.0631482 -2.40854e-06 0.018123)
(0.0614312 -1.22815e-06 0.0103646)
(0.0572073 -4.40722e-07 0.00518392)
(0.0525788 -1.58349e-07 0.00231384)
(0.0484118 -2.3057e-08 0.000867225)
(0.0449027 5.5994e-09 0.00018629)
(0.0270729 5.48144e-09 0.0225991)
(0.0303281 4.24069e-09 0.0254103)
(0.0345424 -3.65592e-08 0.0280141)
(0.0399745 -1.46974e-07 0.0299175)
(0.0466584 -3.92601e-07 0.0300792)
(0.0535939 -7.28641e-07 0.0271053)
(0.0583378 -7.06645e-07 0.0207627)
(0.058969 -3.94224e-07 0.0132771)
(0.056259 -1.11453e-07 0.0073186)
(0.0522723 -2.02032e-08 0.00362427)
(0.0483262 1.3042e-08 0.00161879)
(0.0448845 2.22407e-08 0.000606735)
(0.0420277 1.50249e-08 0.000129796)
(0.0663349 -0.000140141 0.121367)
(0.0663503 -0.00016937 0.100657)
(0.0613372 -0.00012841 0.0794421)
(0.0550992 -8.17769e-05 0.0656364)
(0.0491219 -3.79472e-05 0.0549661)
(0.0438025 -1.62295e-05 0.0468703)
(0.0391968 -6.02408e-06 0.0403697)
(0.0352338 -2.1601e-06 0.035014)
(0.031836 -6.77494e-07 0.0304684)
(0.0289354 -1.72477e-07 0.02652)
(0.0264798 -1.54398e-08 0.0230205)
(0.0244292 7.00532e-09 0.0198735)
(0.047463 -0.000132649 0.0988321)
(0.0486997 -0.000112427 0.0814973)
(0.0471127 -7.97606e-05 0.06836)
(0.0440437 -4.11613e-05 0.0573907)
(0.0404822 -1.90043e-05 0.0487823)
(0.0369292 -7.51741e-06 0.0418253)
(0.0336116 -2.84232e-06 0.0361185)
(0.0306185 -9.58235e-07 0.0313139)
(0.0279769 -2.7648e-07 0.0271757)
(0.0256898 -5.08575e-08 0.0235356)
(0.0237503 1.1496e-08 0.0202824)
(0.0221447 9.19063e-09 0.0173477)
(0.0358787 -9.63936e-05 0.0789933)
(0.0378652 -7.46581e-05 0.0685782)
(0.0376618 -4.27761e-05 0.058701)
(0.0361248 -2.13738e-05 0.0502927)
(0.0339044 -9.0578e-06 0.0431988)
(0.0314429 -3.60627e-06 0.0372672)
(0.0289972 -1.28931e-06 0.0322464)
(0.0267081 -4.0805e-07 0.0279263)
(0.0246502 -9.47179e-08 0.0241398)
(0.0228614 -2.19412e-09 0.02077)