/*--------------------------------*- C++ -*----------------------------------*\
  =========                 |
  \\      /  F ield         | OpenFOAM: The Open Source CFD Toolbox
   \\    /   O peration     | Website:  https://openfoam.org
    \\  /    A nd           | Version:  7
     \\/     M anipulation  |
\*---------------------------------------------------------------------------*/
FoamFile
{
    version     2.0;
    format      ascii;
    class       surfaceScalarField;
    location    "409";
    object      phi;
}
// * * * * * * * * * * * * * * * * * * * * * * * * * * * * * * * * * * * * * //

dimensions      [0 3 -1 0 0 0 0];

internalField   nonuniform List<scalar> 
127367
(
2.74007e-11
1.99439e-13
2.51198e-12
7.19407e-11
1.73545e-12
2.10573e-11
6.11939e-14
7.52442e-14
6.30128e-14
3.82509e-11
4.83176e-13
2.85936e-12
1.0235e-10
3.03469e-12
3.38893e-11
5.68347e-13
6.54993e-13
5.73324e-13
1.17405e-10
4.38291e-12
2.49091e-11
2.54285e-14
3.69772e-14
1.28482e-14
1.48903e-13
2.24734e-13
1.72563e-13
4.93595e-11
8.1025e-13
2.71275e-12
1.6649e-12
1.7634e-11
1.13163e-10
1.23493e-12
1.25649e-12
1.11162e-12
1.85246e-10
8.22433e-12
4.52135e-11
2.18242e-13
3.36839e-13
1.25357e-13
1.44182e-12
2.05341e-12
1.60992e-12
1.54267e-10
7.43337e-12
2.44237e-11
7.45566e-15
2.75023e-14
2.02725e-15
4.74107e-14
1.2422e-13
6.59645e-14
2.53829e-13
4.3133e-13
2.97668e-13
6.19429e-11
1.17677e-12
2.49817e-12
7.41901e-13
6.60008e-13
1.49793e-12
4.72358e-12
2.53957e-11
2.11842e-10
1.54257e-12
1.58983e-11
1.21029e-10
5.59281e-13
6.44483e-13
2.70977e-13
3.47589e-12
4.07618e-12
3.22571e-12
2.50913e-10
1.42735e-11
4.61491e-11
6.34541e-14
2.49575e-13
3.1279e-14
4.43193e-13
1.15898e-12
6.24027e-13
2.50204e-12
3.99239e-12
2.80271e-12
1.9347e-10
1.08516e-11
2.27047e-11
7.20892e-15
1.97251e-14
5.7586e-16
-7.56631e-16
9.56955e-14
3.13176e-14
6.18672e-14
2.61716e-13
1.73725e-13
3.64059e-13
6.98932e-13
4.11462e-13
7.61105e-11
1.56334e-12
2.18825e-12
3.77058e-13
1.71048e-13
7.53088e-13
2.44234e-12
1.94081e-12
4.47634e-12
6.99784e-13
6.29855e-13
1.71087e-12
8.33187e-12
2.66249e-11
2.91375e-10
4.45376e-12
2.35268e-11
2.32605e-10
3.23061e-12
3.21462e-11
1.32879e-10
1.20656e-13
4.87381e-13
9.99086e-14
1.20336e-12
2.30809e-12
1.2789e-12
6.28132e-12
8.02031e-12
5.69962e-12
3.15545e-10
2.10691e-11
4.3666e-11
5.94657e-14
1.81785e-13
1.55463e-14
-1.14749e-14
8.91502e-13
3.09487e-13
5.98221e-13
2.45709e-12
1.62299e-12
3.61824e-12
6.5077e-12
3.89241e-12
2.37358e-10
1.4454e-11
1.99946e-11
4.90321e-15
1.50239e-14
-1.96505e-16
1.24164e-15
7.30277e-14
2.20133e-14
-1.87594e-14
2.06024e-13
1.05781e-13
8.43528e-14
4.62301e-13
3.2601e-13
4.50235e-13
1.01456e-12
5.10023e-13
9.10005e-11
1.94198e-12
1.83444e-12
2.89894e-13
7.33156e-14
1.34512e-13
1.38414e-12
7.79441e-13
1.65318e-12
3.58888e-13
1.66851e-13
9.27145e-13
4.84017e-12
3.46522e-12
8.24863e-12
2.33195e-12
1.86476e-12
5.36327e-12
1.46982e-12
1.35097e-12
2.12072e-12
1.23986e-11
2.55398e-11
3.67136e-10
7.90964e-12
2.50473e-11
3.23987e-10
9.47012e-12
4.86785e-11
2.67896e-10
7.11688e-12
6.631e-11
1.47098e-10
1.26015e-13
3.5917e-13
6.16699e-14
-6.74383e-14
1.79107e-12
6.72905e-13
1.68627e-12
4.95416e-12
3.25699e-12
9.2558e-12
1.31471e-11
7.98403e-12
3.87012e-10
2.82308e-11
3.87729e-11
4.03857e-14
1.3992e-13
6.3927e-15
3.40126e-15
6.85033e-13
2.19873e-13
-1.83535e-13
1.93271e-12
9.98653e-13
8.30341e-13
4.35209e-12
3.03262e-12
4.49355e-12
9.47538e-12
4.82774e-12
2.8325e-10
1.79787e-11
1.68017e-11
3.4857e-15
1.20364e-14
-4.9412e-16
-9.90488e-16
5.91991e-14
1.46315e-14
-1.5434e-14
1.63754e-13
7.97296e-14
-3.60338e-14
3.73439e-13
2.30689e-13
1.1562e-13
7.25503e-13
4.99451e-13
4.94173e-13
1.35163e-12
6.06222e-13
1.05346e-10
2.28559e-12
1.46232e-12
2.1497e-13
4.79368e-14
1.5301e-13
1.08158e-12
4.24106e-13
-1.15663e-13
2.76713e-13
7.55033e-14
1.41191e-13
2.9961e-12
1.96126e-12
2.34854e-12
1.32963e-12
7.52373e-13
2.07e-12
7.72312e-13
3.64569e-13
1.26011e-12
7.96336e-12
4.88333e-12
1.2273e-11
4.64422e-12
3.34572e-12
1.00331e-11
4.99645e-12
4.04157e-12
7.14638e-12
3.21971e-12
3.06823e-12
2.94971e-12
1.66865e-11
2.28227e-11
4.50406e-10
1.18114e-11
2.41913e-11
4.09049e-10
1.69357e-11
5.28798e-11
3.81303e-10
2.13052e-11
1.03992e-10
3.22661e-10
1.62076e-11
1.34723e-10
1.57186e-10
8.07039e-14
2.81718e-13
3.71415e-14
-1.45414e-14
1.38551e-12
4.85173e-13
-5.12396e-13
3.91881e-12
2.03712e-12
2.36265e-12
8.82589e-12
6.0459e-12
1.16037e-11
1.91931e-11
9.91155e-12
4.61102e-10
3.52338e-11
3.27219e-11
2.82877e-14
1.13371e-13
1.75497e-15
-1.57925e-14
5.57708e-13
1.48535e-13
-1.59677e-13
1.54304e-12
7.53806e-13
-3.52027e-13
3.51444e-12
2.15231e-12
1.1464e-12
6.83802e-12
4.6392e-12
4.93981e-12
1.26431e-11
5.71779e-12
3.27402e-10
2.11728e-11
1.34116e-11
2.02258e-15
1.04521e-14
-4.34514e-16
-1.58257e-15
5.0462e-14
9.8321e-15
-1.58596e-14
1.37488e-13
5.67705e-14
-3.48088e-14
3.0741e-13
1.8058e-13
-4.73625e-14
6.04946e-13
3.98617e-13
1.39963e-13
1.03429e-12
6.76832e-13
5.00302e-13
1.68248e-12
7.09058e-13
1.17461e-10
2.57159e-12
1.09586e-12
1.70684e-13
3.09451e-14
9.40511e-14
8.40356e-13
3.08217e-13
-3.35901e-14
2.06232e-13
5.02505e-14
1.73247e-13
2.38051e-12
1.23928e-12
-7.11972e-13
1.04044e-12
4.15417e-13
-1.66383e-13
5.94445e-13
1.74279e-13
1.44793e-13
5.35948e-12
3.62535e-12
3.30244e-12
2.88817e-12
1.88442e-12
2.97255e-12
2.88468e-12
1.63757e-12
2.90879e-12
1.77746e-12
8.47132e-13
1.85526e-12
1.16458e-11
6.06637e-12
1.54613e-11
7.6601e-12
4.72768e-12
1.50423e-11
1.00232e-11
7.2917e-12
1.36955e-11
1.13358e-11
9.37138e-12
1.08127e-11
7.32658e-12
7.2607e-12
4.57013e-12
2.08785e-11
1.93266e-11
5.36308e-10
1.59262e-11
2.16951e-11
5.01996e-10
2.53833e-11
5.14931e-11
4.83709e-10
3.85215e-11
1.16941e-10
4.75433e-10
5.0096e-11
2.24044e-10
3.92224e-10
3.61683e-11
2.56046e-10
1.55337e-10
5.63008e-14
2.31535e-13
2.21756e-14
-6.51312e-14
1.13748e-12
3.34526e-13
-4.40148e-13
3.14347e-12
1.54099e-12
-9.57168e-13
7.15735e-12
4.31079e-12
3.25371e-12
1.3906e-11
9.22572e-12
1.27845e-11
2.56338e-11
1.16669e-11
5.32213e-10
4.15728e-11
2.61776e-11
1.63742e-14
9.82177e-14
8.08667e-16
-2.00028e-14
4.76758e-13
1.01138e-13
-1.6206e-13
1.29899e-12
5.38808e-13
-3.53287e-13
2.90259e-12
1.68416e-12
-4.62817e-13
5.70223e-12
3.70357e-12
1.39134e-12
9.7509e-12
6.28001e-12
4.99458e-12
1.57478e-11
6.64856e-12
3.6457e-10
2.38271e-11
1.00576e-11
-5.42962e-15
1.43569e-16
1.57408e-14
-3.69242e-15
4.68274e-14
6.89752e-15
-1.40808e-14
1.21249e-13
4.01606e-14
-3.43997e-14
2.65469e-13
1.33125e-13
-5.18447e-14
5.14575e-13
3.22807e-13
-5.59494e-14
8.93082e-13
5.95776e-13
1.40445e-13
1.36527e-12
8.53597e-13
4.77468e-13
1.9873e-12
8.1591e-13
1.2562e-10
2.78291e-12
7.34363e-13
1.41424e-13
1.98993e-14
6.56662e-14
6.93931e-13
2.14832e-13
-1.02584e-13
1.64544e-13
3.3118e-14
1.02628e-13
1.9157e-12
9.38541e-13
-6.05646e-13
8.10788e-13
3.02865e-13
-5.65482e-14
4.46594e-13
1.17811e-13
2.03297e-13
4.36086e-12
2.5921e-12
-1.31135e-12
2.29702e-12
1.19608e-12
-9.01474e-13
2.25693e-12
9.18895e-13
-2.83236e-13
1.36056e-12
4.38995e-13
1.22714e-13
8.46102e-12
5.52146e-12
4.54239e-12
5.17534e-12
3.47645e-12
4.19519e-12
6.28854e-12
4.08256e-12
4.26229e-12
6.71544e-12
3.8212e-12
4.5551e-12
4.35729e-12
2.07901e-12
2.74557e-12
1.55631e-11
7.11062e-12
1.70557e-11
1.12165e-11
5.87496e-12
1.90237e-11
1.65928e-11
1.03352e-11
2.07893e-11
2.30452e-11
1.70714e-11
2.14719e-11
2.70158e-11
2.30478e-11
1.81059e-11
1.71382e-11
1.69533e-11
6.64708e-12
2.46701e-11
1.5488e-11
6.18641e-10
1.9948e-11
1.84045e-11
5.97466e-10
3.4295e-11
4.63973e-11
5.9413e-10
5.80925e-11
1.1557e-10
6.10082e-10
9.21774e-11
2.65466e-10
6.09321e-10
1.17231e-10
4.61908e-10
4.45987e-10
7.4522e-11
4.49462e-10
1.37856e-10
3.14991e-14
2.01032e-13
1.53847e-14
-6.88034e-14
9.77175e-13
2.31292e-13
-4.52006e-13
2.66005e-12
1.10791e-12
-9.59444e-13
5.93355e-12
3.37096e-12
-1.25021e-12
1.16374e-11
7.36675e-12
3.937e-12
1.98487e-11
1.24652e-11
1.28791e-11
3.19245e-11
1.34306e-11
5.91844e-10
4.68337e-11
1.96525e-11
-4.02794e-15
3.4498e-15
9.33715e-14
-3.40347e-14
4.36381e-13
7.15375e-14
-1.42467e-13
1.14629e-12
3.82244e-13
-3.47902e-13
2.51155e-12
1.24337e-12
-5.25538e-13
4.86329e-12
2.9968e-12
-5.47893e-13
8.42291e-12
5.5235e-12
1.39251e-12
1.28658e-11
7.90997e-12
4.74879e-12
1.8601e-11
7.60338e-12
3.89458e-10
2.57848e-11
6.74353e-12
-3.60698e-14
5.88401e-15
7.71599e-14
-5.43636e-15
9.15338e-16
1.71181e-14
3.14496e-15
-1.66879e-14
1.1623e-13
2.86128e-14
-3.06829e-14
2.40081e-13
9.62451e-14
-5.28125e-14
4.55592e-13
2.4493e-13
-6.69852e-14
7.83654e-13
4.99223e-13
-7.33954e-14
1.22166e-12
8.1278e-13
1.07403e-13
1.70289e-12
1.0306e-12
4.29759e-13
2.25499e-12
9.14083e-13
1.28469e-10
2.90537e-12
3.62958e-13
1.23157e-13
1.39842e-14
3.57858e-14
5.98014e-13
1.49669e-13
-1.02649e-13
1.36889e-13
2.17149e-14
7.1611e-14
1.62702e-12
6.77228e-13
-6.25717e-13
6.7118e-13
2.1207e-13
-1.41919e-13
3.58023e-13
7.9149e-14
1.12061e-13
3.62474e-12
2.02571e-12
-1.31049e-12
1.85234e-12
9.06225e-13
-7.64316e-13
1.76638e-12
6.72169e-13
-1.20348e-13
1.03712e-12
3.02522e-13
2.2423e-13
7.10066e-12
4.40828e-12
-1.70602e-12
4.21461e-12
2.48849e-12
-1.64302e-12
5.00202e-12
2.60401e-12
-1.30006e-12
5.24702e-12
2.19811e-12
-5.73908e-13
3.31767e-12
1.18747e-12
-2.51107e-14
1.20848e-11
7.44857e-12
5.48822e-12
8.17686e-12
5.28936e-12
5.76918e-12
1.12891e-11
7.51423e-12
6.0673e-12
1.47234e-11
9.46177e-12
6.94348e-12
1.67455e-11
9.50365e-12
7.40089e-12
1.10151e-11
5.28732e-12
3.58141e-12
1.93794e-11
8.12756e-12
1.7153e-11
1.49979e-11
6.87251e-12
2.10082e-11
2.43429e-11
1.28486e-11
2.64626e-11
3.84124e-11
2.4328e-11
3.32129e-11
5.60909e-11
4.27327e-11
3.78736e-11
6.57088e-11
5.70461e-11
2.95354e-11
3.93261e-11
3.55075e-11
6.33558e-12
2.78139e-11
1.16373e-11
6.87547e-10
2.35836e-11
1.47629e-11
6.88844e-10
4.30015e-11
3.94486e-11
7.06624e-10
7.8755e-11
1.05055e-10
7.5107e-10
1.40476e-10
2.69411e-10
8.02034e-10
2.21671e-10
5.85358e-10
7.46565e-10
2.53224e-10
8.62185e-10
4.37412e-10
1.35129e-10
7.34612e-10
1.02442e-10
2.57972e-15
1.44946e-14
1.79935e-13
-9.19653e-14
8.86159e-13
1.64341e-13
-3.92226e-13
2.35201e-12
7.89103e-13
-9.54264e-13
5.15329e-12
2.49455e-12
-1.42804e-12
9.95809e-12
5.95274e-12
-1.47836e-12
1.71991e-11
1.09468e-11
3.93832e-12
2.61799e-11
1.5664e-11
1.21382e-11
3.76765e-11
1.51984e-11
6.31527e-10
5.07083e-11
1.31842e-11
-9.90605e-14
5.74434e-14
4.45385e-13
-4.65047e-15
3.79682e-15
8.87911e-14
-1.52397e-13
1.08062e-12
2.72935e-13
-3.07379e-13
2.27055e-12
8.99964e-13
-5.34366e-13
4.31306e-12
2.27517e-12
-6.79534e-13
7.4077e-12
4.62456e-12
-7.25626e-13
1.15186e-11
7.5229e-12
1.05128e-12
1.60314e-11
9.53573e-12
4.24955e-12
2.10971e-11
8.47133e-12
3.97892e-10
2.69164e-11
3.33499e-12
-9.80318e-14
2.22655e-14
1.97885e-13
-5.59023e-14
6.83973e-15
8.67211e-14
4.04183e-14
1.59881e-15
4.02438e-16
1.74959e-14
-2.37784e-15
1.86593e-16
2.85124e-15
1.07414e-16
-3.56732e-14
2.3507e-13
6.93053e-14
-4.90247e-14
4.2057e-13
1.80306e-13
-7.03083e-14
7.097e-13
3.89203e-13
-8.86177e-14
1.10394e-12
7.05557e-13
-1.14365e-13
1.58178e-12
1.04826e-12
3.85397e-14
2.04319e-12
1.20385e-12
3.55189e-13
2.47689e-12
9.87385e-13
1.25519e-10
2.92692e-12
-4.16031e-14
1.14443e-14
4.66468e-15
1.09631e-13
5.40653e-13
1.06409e-13
-1.27023e-13
1.19407e-13
1.52983e-14
3.79726e-14
1.44046e-12
4.83476e-13
-5.39461e-13
5.79339e-13
1.48212e-13
-1.37298e-13
2.99346e-13
5.27557e-14
7.75401e-14
3.15635e-12
1.50133e-12
-1.30997e-12
1.57573e-12
6.54982e-13
-7.92008e-13
1.46613e-12
4.73e-13
-2.35505e-13
8.37682e-13
2.08367e-13
1.03147e-13
6.0903e-12
3.55823e-12
-1.9502e-12
3.50882e-12
1.944e-12
-1.64247e-12
4.04556e-12
1.97382e-12
-1.10949e-12
4.1398e-12
1.6161e-12
-3.26684e-13
2.5842e-12
8.37932e-13
1.19793e-13
1.04975e-11
6.53254e-12
-2.01536e-12
6.86789e-12
4.22214e-12
-2.1307e-12
9.19643e-12
5.3851e-12
-2.33144e-12
1.17067e-11
6.08087e-12
-2.16604e-12
1.30629e-11
5.64943e-12
-1.35322e-12
8.44902e-12
3.22844e-12
-6.87457e-13
1.59348e-11
9.34239e-12
5.48913e-12
1.16812e-11
7.12926e-12
6.96501e-12
1.78508e-11
1.14183e-11
8.35721e-12
2.65112e-11
1.73472e-11
1.00831e-11
3.70486e-11
2.33376e-11
1.2152e-11
4.3365e-11
2.41971e-11
1.08351e-11
2.72048e-11
1.27889e-11
2.91395e-12
2.28558e-11
9.12696e-12
1.60969e-11
1.86778e-11
7.82834e-12
2.1103e-11
3.25796e-11
1.4995e-11
2.92838e-11
5.65586e-11
3.02713e-11
4.27159e-11
9.45771e-11
6.15058e-11
6.03387e-11
1.39946e-10
1.09331e-10
6.73138e-11
1.54624e-10
1.2756e-10
3.6083e-11
8.07381e-11
6.05104e-11
2.15911e-13
3.01266e-11
7.80994e-12
7.33269e-10
2.65956e-11
1.10976e-11
7.6519e-10
5.0865e-11
3.1682e-11
8.13965e-10
9.89269e-11
8.97028e-11
8.92543e-10
1.91583e-10
2.48857e-10
9.93729e-10
3.43952e-10
6.20945e-10
1.02908e-09
4.94621e-10
1.16464e-09
7.90911e-10
4.73624e-10
1.43764e-09
3.43604e-10
2.07832e-10
1.09281e-09
5.4453e-11
-1.57536e-13
1.25185e-13
8.33952e-13
-1.77744e-15
7.75893e-15
1.69306e-13
-3.89183e-13
2.189e-12
5.64154e-13
-8.35665e-13
4.66202e-12
1.80868e-12
-1.46325e-12
8.8578e-12
4.52372e-12
-1.85303e-12
1.51726e-11
9.15268e-12
-1.96779e-12
2.35026e-11
1.48662e-11
2.98544e-12
3.25746e-11
1.88317e-11
1.07088e-11
4.26745e-11
1.67728e-11
6.44538e-10
5.29444e-11
6.52447e-12
-3.01628e-13
2.06956e-13
1.13471e-12
-7.37404e-14
3.04069e-14
4.36616e-13
1.46689e-15
3.08843e-15
8.5837e-14
-3.24809e-13
2.18392e-12
6.48714e-13
-4.90024e-13
3.97813e-12
1.67591e-12
-7.12527e-13
6.71901e-12
3.60609e-12
-9.00453e-13
1.04295e-11
6.52544e-12
-1.14481e-12
1.48982e-11
9.68654e-12
3.44743e-13
1.92058e-11
1.11208e-11
3.48329e-12
2.31549e-11
9.10479e-12
3.88431e-10
2.71115e-11
-3.80249e-13
-2.03409e-13
5.31653e-14
4.07585e-13
-1.60832e-13
2.29916e-14
2.24507e-13
1.1806e-13
-2.90557e-14
7.09758e-15
9.21537e-14
1.69294e-14
1.30705e-15
1.46583e-14
2.464e-14
4.16471e-15
1.27181e-16
1.68873e-14
-3.68182e-15
4.53315e-17
3.02325e-15
-2.59494e-15
1.87649e-16
2.37116e-15
-2.45122e-15
-5.97739e-14
4.18284e-13
1.31377e-13
-6.81384e-14
6.66534e-13
2.91626e-13
-9.26448e-14
1.02058e-12
5.65214e-13
-1.31242e-13
1.47207e-12
9.46513e-13
-1.91847e-13
1.97992e-12
1.30336e-12
-6.26213e-14
2.38572e-12
1.35763e-12
2.65723e-13
2.63197e-12
1.01661e-12
1.17293e-10
2.83622e-12
-5.04228e-13
7.92082e-14
-1.85862e-13
5.01219e-13
1.20714e-14
5.667e-15
1.06337e-13
5.17784e-15
-9.91237e-16
1.03668e-13
1.33364e-12
3.45671e-13
-5.21618e-13
5.2315e-13
1.05387e-13
-1.60917e-13
2.61693e-13
3.72247e-14
3.84063e-14
2.85664e-12
1.08968e-12
-1.14214e-12
1.39598e-12
4.68083e-13
-6.79574e-13
1.2681e-12
3.31694e-13
-2.182e-13
7.06282e-13
1.4164e-13
6.73115e-14
5.42874e-12
2.70572e-12
-2.00607e-12
3.05898e-12
1.44176e-12
-1.64689e-12
3.44746e-12
1.42923e-12
-1.15013e-12
3.45145e-12
1.14583e-12
-4.84599e-13
2.11294e-12
5.92555e-13
-1.81316e-14
9.28103e-12
5.45605e-12
-2.53441e-12
5.8987e-12
3.40597e-12
-2.44297e-12
7.67346e-12
4.20458e-12
-2.35027e-12
9.52073e-12
4.61178e-12
-1.91921e-12
1.04465e-11
4.18344e-12
-1.05582e-12
6.75325e-12
2.35002e-12
-5.34432e-13
1.4336e-11
8.85142e-12
-2.6879e-12
1.01554e-11
6.24782e-12
-2.51516e-12
1.50011e-11
9.11111e-12
-3.007e-12
2.16011e-11
1.24514e-11
-3.79189e-12
2.94479e-11
1.51466e-11
-4.06249e-12
3.39764e-11
1.48259e-11
-3.56196e-12
2.14249e-11
7.7883e-12
-2.69578e-12
1.98057e-11
1.12072e-11
4.17078e-12
1.53991e-11
8.93288e-12
6.96425e-12
2.55046e-11
1.53726e-11
1.00858e-11
4.19759e-11
2.62984e-11
1.39889e-11
6.70462e-11
4.25265e-11
1.84252e-11
9.72679e-11
5.89968e-11
2.00304e-11
1.09676e-10
5.8011e-11
1.05614e-11
6.03419e-11
2.52581e-11
-1.94786e-12
2.58613e-11
1.00011e-11
1.41e-11
2.2024e-11
8.75736e-12
1.97395e-11
4.05857e-11
1.70102e-11
2.93672e-11
7.58335e-11
3.51888e-11
4.74598e-11
1.40137e-10
7.6709e-11
7.8959e-11
2.39734e-10
1.60505e-10
1.13382e-10
3.36947e-10
2.57122e-10
9.54267e-11
3.22237e-10
2.28181e-10
1.97999e-11
1.35957e-10
8.13902e-11
-9.29903e-12
3.14591e-11
3.86633e-12
7.48025e-10
2.88092e-11
7.44963e-12
8.15719e-10
5.73721e-11
2.38302e-11
9.03348e-10
1.17115e-10
7.22117e-11
1.02654e-09
2.41427e-10
2.14237e-10
1.18084e-09
4.74252e-10
5.89658e-10
1.29677e-09
7.86656e-10
1.30746e-09
1.1577e-09
9.48759e-10
2.00877e-09
6.57032e-10
7.39976e-10
2.13403e-09
1.8819e-10
2.67847e-10
1.42072e-09
7.24137e-12
-5.13462e-13
4.1729e-13
2.10874e-12
-8.9659e-14
5.43532e-14
8.0328e-13
2.71849e-15
7.9501e-15
1.60107e-13
-8.23206e-13
4.42047e-12
1.30411e-12
-1.32937e-12
8.17059e-12
3.33525e-12
-1.95386e-12
1.37983e-11
7.1394e-12
-2.46565e-12
2.13414e-11
1.2879e-11
-3.12895e-12
3.03378e-11
1.90871e-11
1.02087e-12
3.89326e-11
2.18974e-11
8.56993e-12
4.67589e-11
1.78717e-11
6.28689e-10
5.33259e-11
-7.4983e-13
-6.31712e-13
4.879e-13
2.3313e-12
-2.21302e-13
1.02408e-13
1.12318e-12
-5.79302e-14
3.34311e-14
4.35151e-13
6.45399e-15
2.35216e-15
8.11982e-14
-5.39801e-13
3.88511e-12
1.22179e-12
-6.79944e-13
6.30369e-12
2.70306e-12
-9.40469e-13
9.6562e-12
5.22725e-12
-1.3349e-12
1.38886e-11
8.73868e-12
-1.93562e-12
1.86135e-11
1.20226e-11
-6.88418e-13
2.23807e-11
1.25207e-11
2.57614e-12
2.45786e-11
9.32732e-12
3.62857e-10
2.62655e-11
-4.62625e-12
-3.63654e-13
1.00908e-13
7.34204e-13
-3.41104e-13
5.37531e-14
4.65078e-13
2.52853e-13
-9.62669e-14
2.62902e-14
2.41735e-13
5.9848e-14
4.35285e-15
3.80965e-14
7.69188e-14
-2.02594e-14
7.44334e-15
9.27566e-14
1.23419e-14
1.27624e-15
1.62987e-14
1.40583e-14
1.2363e-15
1.24318e-14
1.11597e-14
6.57591e-15
-1.86491e-16
1.55773e-14
-5.07773e-15
-1.7971e-17
2.9927e-15
-3.63301e-15
1.41363e-17
2.62309e-15
-2.86084e-15
1.74804e-16
1.68206e-15
-4.30794e-15
-8.84432e-14
6.71194e-13
2.15173e-13
-9.16018e-14
9.72528e-13
4.31293e-13
-1.32988e-13
1.38864e-12
7.81619e-13
-2.10735e-13
1.90393e-12
1.23323e-12
-3.13149e-13
2.43222e-12
1.57e-12
-1.81631e-13
2.71173e-12
1.45948e-12
1.91657e-13
2.68768e-12
9.73494e-13
1.05158e-10
2.62738e-12
-1.02961e-12
2.52694e-13
-6.15517e-13
1.26222e-12
7.77464e-14
-2.11728e-13
4.83346e-13
3.26917e-14
-9.90483e-14
4.83096e-13
2.84865e-14
5.31216e-15
2.33566e-13
5.21172e-15
-5.93437e-16
1.00729e-13
5.54586e-15
3.05903e-15
9.77836e-14
2.69198e-12
7.85481e-13
-1.09835e-12
1.28958e-12
3.34639e-13
-6.44466e-13
1.14388e-12
2.3586e-13
-2.35322e-13
6.2008e-13
1.00053e-13
2.45635e-14
5.00758e-12
1.99595e-12
-1.81447e-12
2.7691e-12
1.04693e-12
-1.43109e-12
3.0569e-12
1.02259e-12
-9.79902e-13
2.99634e-12
8.07599e-13
-4.29034e-13
1.80376e-12
4.11269e-13
-3.47586e-14
8.45589e-12
4.25673e-12
-2.67973e-12
5.26296e-12
2.59064e-12
-2.51921e-12
6.6984e-12
3.12069e-12
-2.36329e-12
8.13751e-12
3.34925e-12
-1.9703e-12
8.77588e-12
2.99616e-12
-1.21752e-12
5.62924e-12
1.69349e-12
-5.87576e-13
1.30445e-11
7.66073e-12
-3.37886e-12
8.98954e-12
5.21522e-12
-3.17785e-12
1.29079e-11
7.34417e-12
-3.48928e-12
1.80995e-11
9.71108e-12
-3.94789e-12
2.41806e-11
1.1492e-11
-3.96048e-12
2.77018e-11
1.10752e-11
-3.50631e-12
1.76347e-11
5.82561e-12
-2.56979e-12
1.84774e-11
1.13391e-11
-4.28826e-12
1.38648e-11
8.45554e-12
-3.36138e-12
2.21878e-11
1.34584e-11
-3.54562e-12
3.52995e-11
2.09637e-11
-4.84287e-12
5.4663e-11
3.05583e-11
-6.82035e-12
7.76301e-11
3.85897e-11
-8.18843e-12
8.76693e-11
3.57022e-11
-9.46909e-12
4.95653e-11
1.47049e-11
-6.62388e-12
2.36299e-11
1.30015e-11
1.45809e-12
1.91284e-11
1.07036e-11
5.29573e-12
3.36097e-11
1.92366e-11
1.00762e-11
5.99818e-11
3.53274e-11
1.69086e-11
1.06386e-10
6.41977e-11
2.60687e-11
1.7747e-10
1.06666e-10
3.30203e-11
2.49924e-10
1.41067e-10
2.39973e-11
2.472e-10
1.14749e-10
-3.8921e-12
1.07949e-10
3.63746e-11
-1.03142e-11
2.83012e-11
1.05864e-11
1.11426e-11
2.49095e-11
9.56145e-12
1.71956e-11
4.78509e-11
1.89401e-11
2.73309e-11
9.45315e-11
3.96299e-11
4.75097e-11
1.88501e-10
8.86328e-11
8.84621e-11
3.58513e-10
2.01595e-10
1.53608e-10
5.8718e-10
3.91771e-10
1.7821e-10
7.13138e-10
4.82583e-10
7.66466e-11
5.46137e-10
3.12864e-10
-1.78357e-11
1.82204e-10
9.22247e-11
-1.58798e-11
3.16838e-11
-4.47983e-13
7.2936e-10
3.00826e-11
3.68874e-12
8.31804e-10
6.21469e-11
1.60029e-11
9.62212e-10
1.32131e-10
5.43778e-11
1.13736e-09
2.86234e-10
1.73247e-10
1.35484e-09
6.01355e-10
5.15638e-10
1.54632e-09
1.10336e-09
1.29432e-09
1.50786e-09
1.54244e-09
2.35209e-09
1.01486e-09
1.50344e-09
2.99649e-09
3.72073e-10
9.59709e-10
2.75393e-09
2.55193e-11
2.90332e-10
1.55817e-09
-3.55673e-11
-1.07786e-12
9.61859e-13
4.32207e-12
-2.83874e-13
1.76038e-13
2.04963e-12
-8.55992e-14
6.04789e-14
7.78424e-13
8.38633e-15
7.75589e-15
1.50422e-13
-1.35739e-12
7.86128e-12
2.43103e-12
-1.84411e-12
1.29432e-11
5.35455e-12
-2.58373e-12
1.98075e-11
1.03166e-11
-3.66668e-12
2.83526e-11
1.7196e-11
-5.31112e-12
3.77793e-11
2.36158e-11
-1.83529e-12
4.52246e-11
2.45785e-11
6.08723e-12
4.95414e-11
1.8145e-11
5.87098e-10
5.16464e-11
-9.05356e-12
-1.10682e-12
9.21831e-13
4.19435e-12
-4.68102e-13
2.38833e-13
2.32188e-12
-1.8963e-13
1.17301e-13
1.13268e-12
-4.4772e-14
3.57345e-14
4.26284e-13
1.10394e-14
1.44339e-15
7.52945e-14
-7.90114e-13
6.2321e-12
1.99506e-12
-9.1403e-13
9.19191e-12
3.9898e-12
-1.35036e-12
1.31191e-11
7.21404e-12
-2.14338e-12
1.79227e-11
1.1362e-11
-3.16818e-12
2.2804e-11
1.44543e-11
-1.89867e-12
2.53779e-11
1.34384e-11
1.83485e-12
2.50674e-11
8.88221e-12
3.25482e-10
2.43228e-11
-9.43304e-12
-5.82878e-13
1.66274e-13
1.18871e-12
-6.19239e-13
1.01848e-13
8.41361e-13
4.6399e-13
-2.10891e-13
6.31238e-14
5.04765e-13
1.34373e-13
1.01695e-14
7.90227e-14
1.68015e-13
-7.63677e-14
2.91742e-14
2.46878e-13
4.94961e-14
4.87525e-15
4.29713e-14
5.13745e-14
4.09228e-15
3.24396e-14
4.16237e-14
-1.29601e-14
7.6771e-15
8.98648e-14
7.99005e-15
1.32111e-15
1.68671e-14
1.04347e-14
1.14488e-15
1.4501e-14
1.08585e-14
1.08122e-15
9.24549e-15
1.00799e-15
7.92117e-15
-4.21458e-16
1.38751e-14
-5.79543e-15
-8.9349e-17
2.74193e-15
-4.73725e-15
-5.62929e-17
2.63634e-15
-3.58976e-15
-2.77522e-17
1.98119e-15
-3.13207e-15
1.47339e-16
8.91576e-16
-5.34671e-15
-1.24536e-13
9.89731e-13
3.22516e-13
-1.2954e-13
1.34052e-12
6.08958e-13
-2.09456e-13
1.83713e-12
1.05786e-12
-3.44097e-13
2.43645e-12
1.57308e-12
-4.75788e-13
2.94193e-12
1.81556e-12
-2.96975e-13
2.97906e-12
1.46505e-12
1.6073e-13
2.60854e-12
8.31607e-13
9.08291e-11
2.30788e-12
-1.58001e-12
5.73969e-13
-1.29079e-12
2.58364e-12
2.43427e-13
-7.06657e-13
1.21505e-12
1.0271e-13
-3.18501e-13
1.22683e-12
1.72412e-13
-2.66736e-13
1.05497e-12
3.15457e-14
-1.07861e-13
4.65827e-13
3.63865e-14
-9.86027e-14
4.65262e-13
7.39931e-14
-4.84241e-15
5.56248e-13
1.18434e-14
-4.65152e-16
2.21596e-13
5.65003e-15
3.08659e-15
9.50526e-14
5.73788e-15
8.56809e-15
9.18658e-14
4.7865e-12
1.45414e-12
-1.80496e-12
2.60251e-12
7.54516e-13
-1.35163e-12
2.81741e-12
7.3093e-13
-9.00034e-13
2.70134e-12
5.74081e-13
-4.14332e-13
1.59588e-12
2.90603e-13
-5.81522e-14
7.93056e-12
3.19353e-12
-2.51635e-12
4.85461e-12
1.91151e-12
-2.27069e-12
6.06551e-12
2.26723e-12
-2.04283e-12
7.22818e-12
2.40076e-12
-1.66371e-12
7.66722e-12
2.12585e-12
-1.03493e-12
4.88472e-12
1.19635e-12
-4.86554e-13
1.21276e-11
6.13611e-12
-3.54623e-12
8.19731e-12
4.0691e-12
-3.36596e-12
1.15292e-11
5.58772e-12
-3.60753e-12
1.58351e-11
7.21643e-12
-3.96609e-12
2.07762e-11
8.3814e-12
-3.95104e-12
2.35735e-11
8.01609e-12
-3.41181e-12
1.50811e-11
4.22802e-12
-2.26193e-12
1.72993e-11
1.02046e-11
-5.03251e-12
1.26298e-11
7.31413e-12
-4.24274e-12
1.96722e-11
1.12255e-11
-4.5436e-12
3.04779e-11
1.68725e-11
-5.82913e-12
4.61409e-11
2.37767e-11
-7.7104e-12
6.46918e-11
2.92542e-11
-9.20112e-12
7.32764e-11
2.6781e-11
-1.00686e-11
4.22135e-11
1.08819e-11
-6.09987e-12
2.29533e-11
1.39948e-11
-7.29037e-12
1.78568e-11
1.0819e-11
-5.38015e-12
3.02823e-11
1.81864e-11
-4.76196e-12
5.22354e-11
3.08644e-11
-5.69999e-12
8.95987e-11
5.10297e-11
-8.52709e-12
1.45349e-10
7.64383e-11
-1.25477e-11
2.0308e-10
9.18696e-11
-1.75117e-11
2.05309e-10
6.91358e-11
-2.20085e-11
9.24217e-11
2.05992e-11
-1.16951e-11
2.73842e-11
1.45581e-11
-2.47483e-12
2.28004e-11
1.24021e-11
1.86863e-12
4.17161e-11
2.3016e-11
7.65115e-12
7.89852e-11
4.40966e-11
1.68535e-11
1.52038e-10
8.58673e-11
3.17021e-11
2.82615e-10
1.59885e-10
4.87487e-11
4.6083e-10
2.53659e-10
4.67789e-11
5.69695e-10
2.80627e-10
1.56307e-12
4.45566e-10
1.66529e-10
-3.34749e-11
1.48713e-10
3.94481e-11
-1.62708e-11
2.99436e-11
1.06746e-11
7.73928e-12
2.72436e-11
1.00866e-11
1.34565e-11
5.40956e-11
2.05866e-11
2.36004e-11
1.11436e-10
4.37567e-11
4.38985e-11
2.35265e-10
9.86211e-11
8.8491e-11
4.84573e-10
2.3135e-10
1.75489e-10
8.87819e-10
5.01992e-10
2.58927e-10
1.25998e-09
7.6984e-10
1.73417e-10
1.21759e-09
6.78484e-10
-3.12387e-12
7.33599e-10
3.52726e-10
-5.22253e-11
1.97731e-10
9.54745e-11
-1.87534e-11
3.06779e-11
-5.36782e-12
6.81006e-10
3.02944e-11
-4.28133e-13
8.10795e-10
6.48867e-11
7.9262e-12
9.80451e-10
1.43115e-10
3.65432e-11
1.20962e-09
3.2306e-10
1.30752e-10
1.49668e-09
7.15115e-10
4.20663e-10
1.76898e-09
1.41428e-09
1.16338e-09
1.82038e-09
2.20144e-09
2.42604e-09
1.37602e-09
2.47757e-09
3.5546e-09
5.9602e-10
1.96175e-09
3.83989e-09
5.10379e-11
1.04185e-09
3.00929e-09
-1.23911e-10
2.65011e-10
1.41996e-09
-7.91721e-11
-1.85523e-12
1.80161e-12
7.76996e-12
-6.00559e-13
4.04546e-13
4.22602e-12
-2.85752e-13
1.99141e-13
2.0071e-12
-7.57225e-14
6.57357e-14
7.51399e-13
1.43449e-14
7.26229e-15
1.39858e-13
-1.9699e-12
1.26038e-11
3.95022e-12
-2.48006e-12
1.88509e-11
7.87715e-12
-3.71382e-12
2.68427e-11
1.41899e-11
-5.88836e-12
3.64444e-11
2.22758e-11
-8.68922e-12
4.60698e-11
2.82916e-11
-5.16129e-12
5.10856e-11
2.62968e-11
4.09398e-12
5.04299e-11
1.71023e-11
5.26874e-10
4.77919e-11
-1.83971e-11
-1.73102e-12
1.51559e-12
6.7865e-12
-8.34659e-13
4.51722e-13
4.19689e-12
-4.08201e-13
2.77265e-13
2.35923e-12
-1.63141e-13
1.30491e-13
1.1247e-12
-3.36793e-14
3.75913e-14
4.10859e-13
1.4505e-14
7.11705e-16
6.80026e-14
-1.10325e-12
9.18166e-12
2.98405e-12
-1.29591e-12
1.26541e-11
5.62125e-12
-2.12393e-12
1.73123e-11
9.73891e-12
-3.49428e-12
2.28599e-11
1.44564e-11
-4.8135e-12
2.74874e-11
1.66824e-11
-3.0651e-12
2.78039e-11
1.34699e-11
1.53279e-12
2.4296e-11
7.53695e-12
2.81511e-10
2.13511e-11
-1.44361e-11
-8.60044e-13
2.5122e-13
1.76483e-12
-1.0201e-12
1.68599e-13
1.36606e-12
7.76005e-13
-3.87124e-13
1.21006e-13
9.18371e-13
2.52234e-13
1.92744e-14
1.43041e-13
3.11846e-13
-1.71679e-13
7.12205e-14
5.20175e-13
1.14226e-13
1.18058e-14
8.98752e-14
1.1659e-13
9.55899e-15
6.73772e-14
9.51719e-14
-6.04909e-14
3.18529e-14
2.43261e-13
3.99344e-14
5.3958e-15
4.51313e-14
4.32617e-14
4.50616e-15
3.84133e-14
4.20398e-14
3.56567e-15
2.43187e-14
1.48208e-14
-1.039e-14
8.00733e-15
8.51369e-14
6.69138e-15
1.34274e-15
1.63701e-14
7.05529e-15
1.16909e-15
1.52925e-14
8.41791e-15
9.24065e-16
1.15698e-14
7.58254e-15
8.62213e-16
5.63529e-15
-5.34199e-15
9.11885e-15
-6.38555e-16
1.18522e-14
-6.45505e-15
-1.41138e-16
2.41794e-15
-5.32987e-15
-1.35292e-16
2.40179e-15
-4.36714e-15
-1.05766e-16
2.02915e-15
-3.53177e-15
-7.54355e-17
1.17184e-15
-3.33673e-15
1.08717e-16
1.40624e-16
-5.59589e-15
-1.78203e-13
1.37856e-12
4.62689e-13
-1.97992e-13
1.79742e-12
8.46651e-13
-3.49258e-13
2.42339e-12
1.42014e-12
-5.43125e-13
3.10773e-12
1.95039e-12
-6.70574e-13
3.4866e-12
1.97859e-12
-3.86187e-13
3.11864e-12
1.3411e-12
1.68417e-13
2.37467e-12
5.96413e-13
7.59843e-11
1.90264e-12
-2.09944e-12
1.06847e-12
-2.20604e-12
4.64282e-12
5.49161e-13
-1.47964e-12
2.48563e-12
2.3326e-13
-6.73042e-13
2.52558e-12
5.28911e-13
-8.92507e-13
2.64677e-12
9.77157e-14
-3.50026e-13
1.18041e-12
1.15504e-13
-3.30892e-13
1.19285e-12
4.14483e-13
-3.95513e-13
2.48964e-12
6.88813e-14
-1.2634e-13
1.01642e-12
3.51073e-14
-1.10286e-13
4.48055e-13
3.9811e-14
-9.17123e-14
4.47181e-13
2.08722e-13
-6.31449e-14
1.44548e-12
2.96974e-14
-3.85977e-15
5.29949e-13
1.29597e-14
2.2938e-15
2.09432e-13
5.94547e-15
8.33952e-15
8.93375e-14
5.77977e-15
1.48414e-14
8.55915e-14
7.67116e-12
2.35448e-12
-2.61084e-12
4.62704e-12
1.39222e-12
-2.21509e-12
5.68448e-12
1.6335e-12
-1.87316e-12
6.64531e-12
1.71515e-12
-1.45821e-12
6.9247e-12
1.50965e-12
-8.90836e-13
4.37748e-12
8.4369e-13
-3.94575e-13
1.15395e-11
4.68596e-12
-3.38436e-12
7.68725e-12
3.05315e-12
-3.14792e-12
1.06348e-11
4.12393e-12
-3.23304e-12
1.43493e-11
5.24698e-12
-3.40327e-12
1.85173e-11
6.0233e-12
-3.30226e-12
2.08065e-11
5.72702e-12
-2.79857e-12
1.33601e-11
3.01435e-12
-1.77989e-12
1.64039e-11
8.41768e-12
-5.09999e-12
1.17514e-11
5.85807e-12
-4.45685e-12
1.79561e-11
8.75895e-12
-4.82118e-12
2.72738e-11
1.28425e-11
-6.02948e-12
4.0529e-11
1.7698e-11
-7.67082e-12
5.61062e-11
2.14371e-11
-8.78644e-12
6.35865e-11
1.94904e-11
-8.98423e-12
3.71661e-11
7.82361e-12
-5.03798e-12
2.21713e-11
1.3181e-11
-8.08265e-12
1.67342e-11
9.73067e-12
-6.3265e-12
2.76241e-11
1.572e-11
-6.07904e-12
4.64504e-11
2.57054e-11
-7.59142e-12
7.78307e-11
4.09447e-11
-1.12291e-11
1.24134e-10
5.91619e-11
-1.64032e-11
1.72728e-10
6.91597e-11
-2.12284e-11
1.76996e-10
5.08179e-11
-2.16921e-11
8.12952e-11
1.49199e-11
-9.89311e-12
2.78933e-11
1.6719e-11
-1.19225e-11
2.21552e-11
1.33356e-11
-9.16176e-12
3.89658e-11
2.32341e-11
-7.6775e-12
7.12471e-11
4.15873e-11
-7.74671e-12
1.32678e-10
7.4678e-11
-9.9881e-12
2.39285e-10
1.26065e-10
-1.48234e-11
3.83972e-10
1.79456e-10
-2.3276e-11
4.80372e-10
1.7989e-10
-3.89429e-11
3.8533e-10
9.91477e-11
-4.03201e-11
1.30348e-10
2.15349e-11
-1.48653e-11
3.08451e-11
1.5537e-11
-7.0417e-12
2.63902e-11
1.38696e-11
-3.08887e-12
4.9665e-11
2.66271e-11
2.6882e-12
9.78892e-11
5.26119e-11
1.2683e-11
1.99923e-10
1.06654e-10
3.14086e-11
4.03944e-10
2.12118e-10
6.00982e-11
7.37473e-10
3.76937e-10
7.58173e-11
1.05868e-09
5.06349e-10
2.2362e-11
1.0315e-09
4.11106e-10
-5.69264e-11
6.15529e-10
1.82033e-10
-5.79897e-11
1.61349e-10
3.80952e-11
-1.79828e-11
3.04372e-11
9.98135e-12
5.02796e-12
2.88042e-11
1.01345e-11
9.1816e-12
5.91239e-11
2.16244e-11
1.81816e-11
1.25882e-10
4.71712e-11
3.7419e-11
2.77271e-10
1.07299e-10
8.10102e-11
6.05838e-10
2.52859e-10
1.76259e-10
1.20707e-09
5.75948e-10
3.08745e-10
1.92453e-09
1.02236e-09
2.83325e-10
2.16732e-09
1.11666e-09
4.54877e-11
1.64075e-09
7.64372e-10
-9.37669e-11
7.97552e-10
3.61599e-10
-7.40497e-11
1.75954e-10
8.99824e-11
-1.9679e-11
2.83721e-11
-1.08774e-11
6.11271e-10
2.93277e-11
-5.12024e-12
7.56944e-10
6.53318e-11
-9.19904e-13
9.55121e-10
1.49383e-10
1.81086e-11
1.2308e-09
3.49834e-10
8.7987e-11
1.58722e-09
8.07885e-10
3.18878e-10
1.94451e-09
1.6919e-09
9.64832e-10
2.0798e-09
2.85726e-09
2.25709e-09
1.69745e-09
3.57793e-09
3.73666e-09