/*--------------------------------*- C++ -*----------------------------------*\
  =========                 |
  \\      /  F ield         | OpenFOAM: The Open Source CFD Toolbox
   \\    /   O peration     | Website:  https://openfoam.org
    \\  /    A nd           | Version:  7
     \\/     M anipulation  |
\*---------------------------------------------------------------------------*/
FoamFile
{
    version     2.0;
    format      ascii;
    class       volVectorField;
    location    "409";
    object      U;
}
// * * * * * * * * * * * * * * * * * * * * * * * * * * * * * * * * * * * * * //

dimensions      [0 1 -1 0 0 0 0];

internalField   nonuniform List<vector> 
43929
(
(0.000263516 0.000595911 -0.000250247)
(0.000953364 0.0022738 -0.000984604)
(3.98813e-06 0.000303283 -3.98458e-07)
(0.000414389 0.00107514 -0.000272047)
(0.00147403 0.00401473 -0.00164239)
(1.56249e-05 0.00117967 -6.20587e-06)
(0.00158059 0.00429877 -0.00112837)
(2.25727e-09 8.50893e-05 -1.71821e-07)
(2.31256e-05 0.000621018 -8.13698e-07)
(0.00038393 0.00135016 -0.000270346)
(0.00167937 0.00498766 -0.00197475)
(2.86392e-05 0.00215131 -2.32771e-05)
(0.00275664 0.00804791 -0.00216548)
(5.10554e-07 0.000347291 -3.14724e-06)
(9.54847e-05 0.00252997 -1.1065e-05)
(0.00153788 0.00546659 -0.00113906)
(-1.04196e-06 7.69531e-05 -2.16275e-07)
(8.47341e-06 0.00023013 -2.03769e-07)
(4.79125e-05 0.000864428 -9.65575e-07)
(0.000363301 0.0015036 -0.000269584)
(3.66573e-05 0.00273147 -3.55494e-05)
(0.003376 0.0103406 -0.00279666)
(0.00176591 0.00548483 -0.00214003)
(2.33979e-06 0.000678243 -1.32048e-05)
(0.000188753 0.00488916 -4.67762e-05)
(0.00287499 0.0104344 -0.00224777)
(-2.85579e-06 0.000310408 -1.60699e-06)
(3.66991e-05 0.000961287 -4.46999e-06)
(0.000200863 0.00356547 -1.4446e-05)
(0.00147331 0.00612099 -0.00113507)
(-1.40293e-06 5.0445e-05 -2.41941e-07)
(3.61812e-06 0.000196472 -4.13586e-08)
(3.17709e-05 0.000384704 -1.70323e-07)
(7.21734e-05 0.00104287 -1.04082e-06)
(0.000323213 0.00157907 -0.000269215)
(4.01256e-06 0.000900867 -2.42275e-05)
(0.000251869 0.00641864 -7.93531e-05)
(4.10422e-05 0.00303616 -4.18306e-05)
(0.00368094 0.0135812 -0.00298109)
(0.00368111 0.0115565 -0.00312764)
(0.0018515 0.00608011 -0.00232893)
(-2.32347e-06 0.000596493 -5.06377e-06)
(7.6924e-05 0.00193255 -2.11315e-05)
(0.000406049 0.00702002 -6.41979e-05)
(0.00281683 0.0117882 -0.0022429)
(-4.14092e-06 0.00020686 -2.05019e-06)
(1.84997e-05 0.000815999 -3.96289e-08)
(0.000133472 0.00161646 -4.47696e-06)
(0.000304872 0.00432585 -1.63028e-05)
(0.00131934 0.00644525 -0.00113309)
(-1.63765e-06 3.86977e-05 -2.69847e-07)
(2.99818e-06 0.000140769 -3.86234e-08)
(2.43532e-05 0.000321009 8.85861e-08)
(7.05048e-05 0.000541136 -1.84396e-07)
(9.22958e-05 0.00116156 -1.01226e-06)
(0.000276977 0.00160607 -0.000269041)
(-7.5615e-07 0.000784449 -6.81066e-06)
(0.000106067 0.00260925 -4.05448e-05)
(4.94715e-06 0.00102389 -3.1213e-05)
(0.000549804 0.00933093 -0.000113086)
(0.000286677 0.0072474 -9.85628e-05)
(4.67024e-05 0.00341023 -4.98213e-05)
(0.003667 0.0154415 -0.00298363)
(0.00410459 0.0152764 -0.00338129)
(0.00403301 0.0130539 -0.00353258)
(0.00194003 0.00702198 -0.0025868)
(-4.27644e-06 0.000406912 -6.93635e-06)
(4.61983e-05 0.00162627 1.02771e-06)
(0.000269881 0.00327889 -2.2582e-05)
(0.000623447 0.00859286 -7.41815e-05)
(0.00255196 0.0124684 -0.00223659)
(-4.89823e-06 0.000160018 -2.06027e-06)
(1.65294e-05 0.000589205 -3.03325e-07)
(0.000104609 0.00134377 1.98452e-06)
(0.000293654 0.00227933 -4.86321e-06)
(0.000391159 0.00483228 -1.62923e-05)
(0.00113394 0.00656424 -0.00113127)
(-1.87575e-06 2.95641e-05 -2.80249e-07)
(2.20013e-06 0.000113004 -3.0051e-08)
(2.53403e-05 0.000242832 1.32798e-07)
(6.55853e-05 0.000451569 1.557e-07)
(0.000117991 0.00068425 -2.17718e-07)
(0.000110661 0.00123114 -9.17447e-07)
(0.000225908 0.00160746 -0.000268968)
(-2.94782e-06 0.000543214 -1.05881e-05)
(6.93683e-05 0.00218328 3.63393e-06)
(3.53784e-07 0.000887378 -7.39231e-06)
(0.000365063 0.00445327 -4.46712e-05)
(0.00012255 0.00298783 -5.31863e-05)
(6.11596e-06 0.00118131 -4.07573e-05)
(0.000850906 0.0114921 -0.000133125)
(0.00063026 0.0105997 -0.000142899)
(0.000331024 0.00828913 -0.000124819)
(5.70402e-05 0.00403205 -6.56387e-05)
(0.00335217 0.0163868 -0.00297578)
(0.00412415 0.0174252 -0.00339087)
(0.00462166 0.0173909 -0.00388452)
(0.0045454 0.0155327 -0.00419694)
(0.00197677 0.00833885 -0.00283579)
(-5.28896e-06 0.000318534 -6.63313e-06)
(4.39727e-05 0.00118873 -7.79543e-08)
(0.000218146 0.00271 9.84304e-06)
(0.000586769 0.0046414 -2.49917e-05)
(0.000803802 0.00964333 -7.5085e-05)
(0.002205 0.0127278 -0.00222862)
(-5.70639e-06 0.000124053 -2.07891e-06)
(1.3806e-05 0.000474741 1.64478e-07)
(0.000109392 0.00102179 2.45041e-06)
(0.000274834 0.00189723 3.10502e-06)
(0.000490367 0.00288487 -5.46356e-06)
(0.000468117 0.00512975 -1.49081e-05)
(0.000926383 0.00657413 -0.00112997)
(-1.99019e-06 2.46545e-05 -2.62746e-07)
(1.57828e-06 9.2673e-05 -6.02882e-09)
(2.49313e-05 0.000200794 1.72891e-07)
(7.17626e-05 0.000357414 2.40406e-07)
(0.000126359 0.000581497 1.71424e-07)
(0.000167786 0.000802743 -2.28358e-07)
(0.000129954 0.00126968 -8.05862e-07)
(0.000175122 0.00160036 -0.000268932)
(-3.94503e-06 0.000428475 -9.49868e-06)
(6.7787e-05 0.00160948 1.30359e-06)
(-1.96018e-06 0.000618964 -1.24517e-05)
(0.000300614 0.00366661 1.93524e-05)
(8.30762e-05 0.00249322 5.68167e-06)
(2.01782e-06 0.00101818 -7.79928e-06)
(0.000788046 0.00632068 -4.98395e-05)
(0.00041823 0.00511393 -5.93047e-05)
(0.000143976 0.00347656 -7.10606e-05)
(8.12313e-06 0.00146286 -5.85961e-05)
(0.00110075 0.0129393 -0.000136022)
(0.000979301 0.0130948 -0.000169682)
(0.000734023 0.0122113 -0.000184427)
(0.000409208 0.0100866 -0.000178401)
(7.47002e-05 0.00498372 -9.79584e-05)
(0.00290856 0.0167566 -0.00296161)
(0.00378788 0.0185234 -0.00338294)
(0.00469318 0.0199164 -0.00390725)
(0.00545941 0.0209709 -0.00474612)
(0.00513802 0.0192291 -0.00514518)
(0.00193005 0.00986756 -0.00292444)
(-6.46314e-06 0.000251782 -6.61436e-06)
(4.023e-05 0.000963492 2.52527e-06)
(0.000229613 0.00207787 1.22187e-05)
(0.000553954 0.00384828 1.49372e-05)
(0.000976309 0.00588303 -2.80311e-05)
(0.000958995 0.0102625 -6.90031e-05)
(0.00180669 0.0127611 -0.00222241)
(-6.00557e-06 0.000104154 -1.75856e-06)
(1.1672e-05 0.000391553 5.44317e-07)
(0.000108507 0.000846965 3.52096e-06)
(0.000300824 0.00150748 4.39799e-06)
(0.000525862 0.00244763 3.33856e-06)
(0.000696629 0.00338468 -5.55472e-06)
(0.000546768 0.00529437 -1.30365e-05)
(0.000718711 0.00654695 -0.00112887)
(-1.46792e-06 2.21522e-05 9.82636e-07)
(1.42433e-06 8.16158e-05 1.06906e-07)
(2.46446e-05 0.000171038 2.28528e-07)
(7.40976e-05 0.00030345 3.15959e-07)
(0.000143283 0.000479755 2.86954e-07)
(0.000201126 0.000702015 1.70791e-07)
(0.00021713 0.000898071 -1.96804e-07)
(0.000150855 0.00129648 -7.02515e-07)
(0.000125795 0.00159649 -0.000268897)
(-5.22192e-06 0.000342651 -9.47262e-06)
(6.41588e-05 0.00130997 6.82544e-06)
(-2.90328e-06 0.000490008 -1.07506e-05)
(0.000317594 0.00282797 2.3605e-05)
(8.20274e-05 0.0018457 2.52614e-06)
(-4.63277e-07 0.000716356 -1.45894e-05)
(0.000747945 0.0052275 2.85528e-05)
(0.000347359 0.00420287 2.56742e-05)
(0.000101457 0.0028917 8.90725e-06)
(5.6462e-06 0.00124959 -7.69543e-06)
(0.00130782 0.0080195 -5.57601e-05)
(0.000899816 0.00726792 -6.64081e-05)
(0.000486711 0.00597056 -8.03424e-05)
(0.00018313 0.00436247 -0.000106989)
(1.17549e-05 0.00194983 -8.81143e-05)
(0.00131056 0.0137946 -0.000125299)
(0.00126897 0.0147679 -0.000174128)
(0.0011461 0.015142 -0.000221094)
(0.000921077 0.0150435 -0.000271141)
(0.000538031 0.0129787 -0.000288997)
(9.838e-05 0.00627422 -0.000153182)
(0.00238865 0.0168147 -0.00294997)
(0.00329386 0.0189584 -0.00336501)
(0.00433622 0.0212166 -0.00390008)
(0.00565106 0.0241875 -0.00480905)
(0.00664171 0.0265172 -0.00608353)
(0.00558126 0.0238425 -0.0061221)
(0.00185541 0.011221 -0.00273772)
(-6.76841e-06 0.000213561 -5.41693e-06)
(3.72098e-05 0.000801364 4.29575e-06)
(0.000230264 0.00172926 1.77716e-05)
(0.000606495 0.00307704 2.14349e-05)
(0.00104877 0.00497926 1.59554e-05)
(0.00138428 0.00690247 -2.8403e-05)
(0.00111037 0.0106048 -6.01628e-05)
(0.00140369 0.0127146 -0.00221699)
(-4.76761e-06 9.24007e-05 2.28831e-06)
(1.14228e-05 0.000344734 2.05928e-06)
(0.000107902 0.0007239 4.48946e-06)
(0.000311393 0.00128234 6.12995e-06)
(0.000595899 0.00202571 5.31581e-06)
(0.000834709 0.00295706 3.30328e-06)
(0.000900505 0.0037846 -4.80523e-06)
(0.000630621 0.00540758 -1.11852e-05)
(0.000516501 0.0065319 -0.00112796)
(3.12462e-06 7.94021e-05 4.83861e-06)
(-1.02609e-06 3.88764e-05 4.59963e-06)
(2.48915e-05 0.000155275 4.59745e-07)
(7.55948e-05 0.000265954 4.09367e-07)
(0.000152765 0.000417815 3.9641e-07)
(0.000236174 0.000602222 3.03335e-07)
(0.000284475 0.000812096 1.93254e-07)
(0.000266466 0.000982879 -1.24299e-07)
(0.000171594 0.00132792 -6.10242e-07)
(7.63496e-05 0.00160243 -0.000268843)
(-5.49677e-06 0.000292438 -7.47771e-06)
(6.10875e-05 0.00109556 1.00224e-05)
(-4.21677e-06 0.000393995 -1.07261e-05)
(0.000320552 0.00236031 3.47489e-05)
(7.86325e-05 0.00150533 1.00598e-05)
(-1.28803e-06 0.000569559 -1.19729e-05)
(0.00081885 0.00419869 4.0793e-05)
(0.000367594 0.00325108 3.11126e-05)
(0.000101265 0.0021516 4.69477e-06)
(2.82557e-06 0.000892123 -1.73008e-05)
(0.00140605 0.00677756 3.02679e-05)
(0.000856138 0.0060038 3.7416e-05)
(0.000408231 0.00489634 3.48374e-05)
(0.000136547 0.00360924 1.65815e-05)
(1.30523e-05 0.00164415 -4.27881e-06)
(0.00185134 0.00940895 -5.63283e-05)
(0.00149139 0.00922582 -7.42486e-05)
(0.00104315 0.00849882 -9.04218e-05)
(0.00061006 0.00753504 -0.00012431)
(0.000252222 0.00592088 -0.000174325)
(1.93617e-05 0.00274709 -0.000125135)
(0.00150821 0.0142672 -0.000108882)
(0.00150936 0.015758 -0.000160581)
(0.00148818 0.0171108 -0.000227982)
(0.00145104 0.0187766 -0.000329594)
(0.00124244 0.0197387 -0.000458088)
(0.000718671 0.0170984 -0.000495078)
(0.0001153 0.00772233 -0.000196262)
(0.00185791 0.0167597 -0.00293958)
(0.00270835 0.0190325 -0.00334988)
(0.00378126 0.0217392 -0.00387706)
(0.00527952 0.0258666 -0.00480615)
(0.00711055 0.0309586 -0.0062739)
(0.00791603 0.0338478 -0.00774779)
(0.00572232 0.0281966 -0.00648074)
(0.00181017 0.0119949 -0.00221707)
(-5.26443e-06 0.000188882 3.63793e-07)
(3.74031e-05 0.000706602 9.56911e-06)
(0.000230742 0.0014854 2.22576e-05)
(0.000630112 0.00262575 3.0232e-05)
(0.00118697 0.00414203 2.59455e-05)
(0.00165707 0.00602211 1.57851e-05)
(0.00178563 0.00771084 -2.45354e-05)
(0.00126706 0.0108361 -5.11514e-05)
(0.00100953 0.012688 -0.00221247)
(1.65791e-05 0.000326041 1.72438e-05)
(-2.48097e-06 9.11624e-05 5.8653e-06)
(0.000109416 0.000655765 7.61495e-06)
(0.000318268 0.00112658 7.82104e-06)
(0.000635968 0.0017672 7.66426e-06)
(0.000979359 0.00254341 5.72007e-06)
(0.00117856 0.00342028 3.74613e-06)
(0.00110354 0.00413795 -3.24957e-06)
(0.000713063 0.00553835 -9.46077e-06)
(0.000313638 0.00655656 -0.00112715)
(2.84573e-05 0.000156299 1.00357e-05)
(1.42745e-05 0.000148303 3.4626e-05)
(-3.22064e-06 3.824e-05 -1.50904e-06)
(-4.0779e-07 2.02477e-05 1.13645e-06)
(7.71935e-05 0.00024687 7.9432e-07)
(0.000158957 0.000375004 5.32157e-07)
(0.000259084 0.00053753 4.37726e-07)
(0.000345888 0.000722681 3.39561e-07)
(0.00037462 0.000923112 2.67504e-07)
(0.000315818 0.00107425 -1.39702e-08)
(0.000189041 0.00137458 -5.20435e-07)
(2.44146e-05 0.00162024 -0.000268761)
(-4.06093e-06 0.000258824 -1.14431e-06)
(6.16689e-05 0.000967354 1.84455e-05)
(-4.47396e-06 0.00033723 -8.25403e-06)
(0.000322594 0.00203421 4.29445e-05)
(7.56462e-05 0.0012623 1.41465e-05)
(-2.63467e-06 0.000460854 -1.19237e-05)
(0.000852725 0.00359114 5.81146e-05)
(0.000372109 0.00271737 4.60061e-05)
(9.83327e-05 0.00175922 1.51721e-05)
(2.34034e-06 0.000714485 -1.28143e-05)
(0.0015897 0.00565874 4.93723e-05)
(0.000937233 0.00483304 5.33816e-05)
(0.000432828 0.00380107 4.21089e-05)
(0.000138418 0.00270969 1.11812e-05)
(9.71997e-06 0.00120142 -1.63586e-05)
(0.00221407 0.00820285 2.98918e-05)
(0.00160391 0.00779181 3.95196e-05)
(0.000995326 0.00701097 5.01177e-05)
(0.000519754 0.00615752 5.44953e-05)
(0.000201205 0.00486032 3.65402e-05)
(2.52063e-05 0.00228355 1.45405e-05)
(0.00238395 0.0105034 -4.86379e-05)
(0.0021094 0.0108241 -7.49232e-05)
(0.00172624 0.0107946 -0.000101115)
(0.00129955 0.0107555 -0.000141617)
(0.000823221 0.0103191 -0.000213965)
(0.000364081 0.0085112 -0.000276687)
(3.17151e-05 0.00391873 -0.00014004)
(0.00170789 0.0145824 -9.1801e-05)
(0.00173178 0.0163049 -0.000139332)
(0.00176807 0.0182778 -0.000210508)
(0.00189137 0.0212938 -0.000342203)
(0.00198961 0.0249099 -0.000568535)
(0.00173132 0.0267111 -0.000840984)
(0.000888862 0.0218716 -0.000742709)
(0.000112096 0.0088705 -0.000117523)
(0.00133698 0.0167271 -0.00293082)
(0.00210782 0.018974 -0.00333622)
(0.00311389 0.0218361 -0.003857)
(0.00462833 0.0265587 -0.00477358)
(0.00678038 0.0333389 -0.00629181)
(0.00894338 0.0402723 -0.00829065)
(0.00875839 0.0412783 -0.00890746)
(0.00568615 0.0308849 -0.00564726)
(0.00179287 0.0121253 -0.00139587)
(4.4428e-05 0.000655552 3.10844e-05)
(-2.7903e-06 0.000173163 2.70955e-06)
(0.000234581 0.00134389 3.30787e-05)
(0.000645675 0.00231479 3.80866e-05)
(0.00126866 0.00362357 3.77607e-05)
(0.00194137 0.00520216 2.80645e-05)
(0.00233245 0.00696321 1.80733e-05)
(0.00218255 0.00841678 -1.66181e-05)
(0.00141839 0.0110964 -4.26222e-05)
(0.000613493 0.0127371 -0.00220843)
(0.000120612 0.000639331 3.82787e-05)
(2.80284e-05 0.000339929 4.56808e-05)
(-4.52684e-06 8.62597e-05 -7.57275e-07)
(0.000325495 0.00104264 1.29979e-05)
(0.000662314 0.00158914 1.01631e-05)
(0.00107478 0.00227391 8.52029e-06)
(0.00143194 0.00305054 6.51199e-06)
(0.00154958 0.00388442 5.2344e-06)
(0.00130585 0.00451667 -9.77683e-07)
(0.000781533 0.00573123 -7.71921e-06)
(0.000100383 0.00662962 -0.00112647)
(8.47987e-05 0.00025347 1.65431e-05)
(7.88994e-05 0.000298024 7.72371e-05)
(9.75894e-06 0.000152761 1.31425e-05)
(9.05447e-06 7.7702e-05 1.96475e-05)
(-4.08607e-06 3.86898e-05 -2.66946e-06)
(-2.30508e-06 2.10002e-05 -1.82351e-06)
(-1.32663e-07 1.31764e-05 -9.44234e-07)
(0.000164239 0.000354341 1.09772e-06)
(0.000274532 0.000492472 6.14033e-07)
(0.000389857 0.000660432 4.94039e-07)
(0.000472364 0.000852072 4.44108e-07)
(0.000472446 0.00105503 4.19389e-07)
(0.000362924 0.00118845 1.36277e-07)
(0.00020019 0.00143942 -4.33415e-07)
(-3.40592e-05 0.00164724 -0.000268678)
(6.88913e-05 0.000890954 4.17358e-05)
(-3.11745e-06 0.000298668 -1.70595e-06)
(-1.98929e-06 0.000236232 1.11758e-06)
(0.000328098 0.0018397 6.01465e-05)
(7.64386e-05 0.00111541 2.43841e-05)
(-2.87141e-06 0.000395782 -8.81339e-06)
(0.000875134 0.00317309 7.25562e-05)
(0.000375192 0.00234573 5.65336e-05)
(9.5564e-05 0.00147987 2.05379e-05)
(9.62767e-07 0.000584099 -1.25093e-05)
(0.0017007 0.00496054 7.24162e-05)
(0.000977089 0.00413846 7.63576e-05)
(0.00043961 0.00318268 6.24568e-05)
(0.000136768 0.00222537 2.7891e-05)
(9.98428e-06 0.000973363 -8.14636e-06)
(0.00259094 0.00710827 5.35738e-05)
(0.0018124 0.00651755 6.45823e-05)
(0.00108946 0.0056593 7.15889e-05)
(0.000552697 0.00481072 6.68008e-05)
(0.00020805 0.00370488 3.39791e-05)
(2.2021e-05 0.0017255 7.71201e-06)
(0.00310898 0.00948189 3.43725e-05)
(0.00252129 0.00943359 3.89931e-05)
(0.00185699 0.00910989 5.27209e-05)
(0.00124549 0.00885331 7.70332e-05)
(0.000716484 0.00839056 9.7613e-05)
(0.000306388 0.00692974 9.29063e-05)
(3.75324e-05 0.00323834 8.2982e-05)
(0.00290782 0.011451 -3.30947e-05)
(0.00271374 0.0120788 -6.4681e-05)
(0.00243893 0.0126643 -0.000101958)
(0.00214455 0.0136749 -0.000158898)
(0.00173845 0.0147974 -0.000250698)
(0.00116073 0.0150151 -0.000374179)
(0.000508067 0.012346 -0.000357747)
(4.15604e-05 0.005264 -4.63347e-05)
(0.00189774 0.0149308 -7.54473e-05)
(0.00195356 0.0166675 -0.000117023)
(0.0020213 0.0189223 -0.000182349)
(0.002243 0.0227905 -0.000316448)
(0.00261284 0.0284246 -0.000596414)
(0.00285632 0.0342831 -0.00108728)
(0.00227246 0.0351506 -0.0014153)
(0.000932376 0.025752 -0.000686443)
(9.43529e-05 0.00932305 0.000130213)
(0.000812897 0.016793 -0.00292296)
(0.00151726 0.0189386 -0.00332467)
(0.00242524 0.0217743 -0.00383862)
(0.00382262 0.0267047 -0.00474309)
(0.00600518 0.0343625 -0.0062436)
(0.00883703 0.0438849 -0.00840274)
(0.01054 0.0503048 -0.0101088)
(0.00899149 0.0462838 -0.00831163)
(0.00560969 0.0315746 -0.00368747)
(0.0017873 0.0119424 -0.00050941)
(0.000250179 0.00127947 7.66271e-05)
(5.41173e-05 0.000625681 5.14178e-05)
(-4.1393e-06 0.000162647 -1.54975e-06)
(0.000660829 0.00213697 5.59984e-05)
(0.0013228 0.00326725 4.93632e-05)
(0.00213172 0.0046634 4.20989e-05)
(0.00283014 0.00623348 3.2138e-05)
(0.00305802 0.00789593 2.56115e-05)
(0.00257529 0.00916673 -5.14378e-06)
(0.00154086 0.0114765 -3.3941e-05)
(0.000196589 0.0128797 -0.00220509)
(0.000349806 0.00103562 6.3449e-05)
(0.000157738 0.000679728 0.000102703)
(2.47796e-05 0.000332161 2.48453e-05)
(-5.82441e-06 8.30375e-05 -3.44214e-06)
(0.000684844 0.00149653 1.77263e-05)
(0.00113944 0.00208678 1.17891e-05)
(0.00161414 0.00279222 9.68308e-06)
(0.00195253 0.00359201 8.62345e-06)
(0.00195102 0.00443262 8.21635e-06)
(0.00149816 0.00498914 2.00971e-06)
(0.000823599 0.00599875 -6.00873e-06)
(-0.000139958 0.00673993 -0.00112621)
(0.000179724 0.000368725 2.42042e-05)
(0.000223466 0.000489041 0.000130419)
(7.84578e-05 0.000311138 3.48428e-05)
(4.83734e-05 0.000156475 4.62336e-05)
(7.22262e-06 0.000160121 8.28915e-06)
(4.9432e-06 8.57453e-05 8.72137e-06)
(6.93056e-06 5.11166e-05 1.13232e-05)
(-4.83006e-06 3.60343e-05 -3.58606e-06)
(-2.91987e-06 2.22276e-05 -2.42295e-06)
(-1.9337e-06 1.4111e-05 -2.0218e-06)
(4.37407e-08 7.42707e-06 -3.00368e-06)
(0.00028724 0.00047212 1.37395e-06)
(0.000420591 0.000616089 7.09362e-07)
(0.000547342 0.00079751 6.32156e-07)
(0.000621259 0.00101404 6.65961e-07)
(0.00057789 0.00123075 6.75651e-07)
(0.000401414 0.00133052 3.23888e-07)
(0.000200621 0.00151557 -3.72422e-07)
(-0.000101698 0.00167423 -0.000268633)
(0.000344595 0.00173433 0.000107188)
(8.35869e-05 0.00102447 4.83262e-05)
(7.69358e-05 0.000840232 5.95409e-05)
(-1.65284e-06 0.000350919 -2.05746e-06)
(-1.33374e-06 0.000272791 5.71429e-07)
(-2.95038e-06 0.00022244 -2.16477e-06)
(0.000895603 0.00292573 0.000100967)
(0.000381609 0.00212123 7.73865e-05)
(9.66118e-05 0.00130892 3.31443e-05)
(7.41314e-07 0.000504415 -8.21751e-06)
(0.00177457 0.0044806 9.37982e-05)
(0.00100348 0.00366075 9.49582e-05)
(0.000444198 0.00275274 7.62942e-05)
(0.00013469 0.00188219 3.61446e-05)
(8.61068e-06 0.00080809 -6.47842e-06)
(0.00284594 0.00638449 8.08138e-05)
(0.00193983 0.00571922 9.50307e-05)
(0.00113726 0.00485281 0.000102771)
(0.00056434 0.0040409 9.88301e-05)
(0.000209578 0.00306594 6.384e-05)
(2.32506e-05 0.00142179 2.39385e-05)
(0.00376845 0.00851111 6.15936e-05)
(0.00294866 0.00818766 7.0162e-05)
(0.0020969 0.00763724 8.65314e-05)
(0.00136274 0.00718167 0.000111483)
(0.000764994 0.00662831 0.000127098)
(0.000323929 0.0054108 0.000116656)
(3.6628e-05 0.00255401 0.000108896)
(0.00406703 0.0107393 4.90559e-05)
(0.00353596 0.0109027 4.49273e-05)
(0.00291294 0.0110338 5.19691e-05)
(0.00230733 0.011528 8.05616e-05)
(0.00167568 0.0121471 0.000134502)
(0.00103062 0.012158 0.000191603)
(0.000430758 0.0100601 0.000250701)
(4.09166e-05 0.00441997 0.000241925)
(0.00342329 0.0124508 -1.0715e-05)
(0.00330644 0.0131603 -4.40804e-05)
(0.00313396 0.0141261 -8.79958e-05)
(0.00302366 0.0160422 -0.000160281)
(0.00285536 0.0188461 -0.000284441)
(0.00242697 0.02168 -0.000464864)
(0.00159691 0.0220483 -0.000565165)
(0.000610182 0.0167386 -0.000188285)
(4.02081e-05 0.0062099 0.000240063)
(0.00204785 0.0154356 -5.86762e-05)
(0.00216257 0.0170644 -9.55586e-05)
(0.0022695 0.0193462 -0.00015249)
(0.00254824 0.0236167 -0.000273248)
(0.00309164 0.0305274 -0.000552896)
(0.00380979 0.0395177 -0.00116787)
(0.0039331 0.0460769 -0.00198649)
(0.00251862 0.0422722 -0.00160883)
(0.000832775 0.0274173 -1.95626e-05)
(7.92427e-05 0.00923784 0.000363635)
(0.000260652 0.0169817 -0.00291654)
(0.000922741 0.0190138 -0.00331428)
(0.0017464 0.0217358 -0.00382301)
(0.00298146 0.0266414 -0.00471457)
(0.00498801 0.0346185 -0.0061906)
(0.00798183 0.0455457 -0.00834375)
(0.0109544 0.0557723 -0.010525)
(0.011274 0.0576545 -0.0100446)
(0.00889244 0.0479135 -0.00565897)
(0.0055424 0.031208 -0.00137049)
(0.00178652 0.0118247 0.000266883)
(0.000695276 0.00206957 0.000127918)
(0.000275933 0.00124167 0.000123798)
(5.23418e-05 0.000602161 4.0531e-05)
(-5.40729e-06 0.000153746 -5.12134e-06)
(0.00136782 0.00306737 7.54904e-05)
(0.0022615 0.00428957 5.72424e-05)
(0.00319063 0.00572046 4.79963e-05)
(0.00384831 0.00732342 4.27362e-05)
(0.00383878 0.00898617 4.05149e-05)
(0.00294582 0.0100992 9.79739e-06)
(0.00161006 0.012002 -2.54294e-05)
(-0.000274018 0.0130936 -0.00220378)
(0.000735635 0.00150607 9.16812e-05)
(0.000444833 0.00111371 0.000172399)
(0.000160202 0.000671578 6.28204e-05)
(2.11341e-05 0.000330066 1.5736e-05)
(-6.97995e-06 7.75892e-05 -5.31287e-06)
(0.0011927 0.00199357 2.19116e-05)
(0.00174199 0.0026088 1.36721e-05)
(0.00226226 0.00336701 1.24473e-05)
(0.00256331 0.00426563 1.29394e-05)
(0.0023821 0.00515961 1.31372e-05)
(0.00165424 0.00557606 5.63633e-06)
(0.000821017 0.00631237 -4.74866e-06)
(-0.000417449 0.00684893 -0.00112666)
(0.000315758 0.000496517 3.26821e-05)
(0.000469966 0.000717291 0.000193359)
(0.000233923 0.000514625 6.13644e-05)
(0.000136803 0.000256957 7.94751e-05)
(7.68968e-05 0.000330423 2.50683e-05)
(4.64615e-05 0.000175484 2.44578e-05)
(3.60135e-05 0.0001032 2.92604e-05)
(4.79613e-06 0.000156332 4.67582e-06)
(3.17981e-06 9.40827e-05 5.76638e-06)
(3.03888e-06 5.91004e-05 6.98014e-06)
(4.92399e-06 2.96116e-05 2.97398e-06)
(-5.18083e-06 3.27248e-05 -3.79844e-06)
(-3.44743e-06 2.0605e-05 -2.93625e-06)
(-2.45837e-06 1.55339e-05 -2.39981e-06)
(-1.58368e-06 8.16718e-06 -2.23456e-06)
(1.1926e-07 3.2877e-06 -4.21196e-06)
(0.000445823 0.000597486 1.67483e-06)
(0.000601614 0.000756927 8.97929e-07)
(0.00074372 0.000975058 9.34557e-07)
(0.000799226 0.00124268 1.07241e-06)
(0.00068459 0.00146807 1.06452e-06)
(0.000419937 0.00149433 5.393e-07)
(0.000183954 0.00158593 -3.71392e-07)
(-0.000177324 0.00168715 -0.000268665)
(0.000932831 0.002803 0.000178877)
(0.000398258 0.00199185 0.000125663)
(0.000364845 0.00166019 0.000148505)
(0.000103502 0.00119903 5.77344e-05)
(9.06355e-05 0.00096373 6.52205e-05)
(7.57101e-05 0.000807327 5.2362e-05)
(1.61403e-06 0.000448561 -1.25795e-06)
(-2.80394e-07 0.000321274 1.54791e-07)
(-2.10861e-06 0.00025732 -2.3269e-06)
(-4.04775e-06 0.000209807 -5.70386e-06)
(0.00183426 0.0041997 0.000135162)
(0.00102684 0.0033737 0.000129355)
(0.00045176 0.00248922 0.00010188)
(0.000136109 0.00166788 5.30421e-05)
(8.29062e-06 0.00070393 -2.20078e-07)
(0.00302037 0.00588153 0.000108714)
(0.00202475 0.00517029 0.000122597)
(0.00116894 0.00429836 0.00012726)
(0.000572103 0.00350686 0.000119772)
(0.00020934 0.00261617 7.92266e-05)
(2.19626e-05 0.00120493 3.0542e-05)
(0.00424859 0.00782529 9.2282e-05)
(0.00323938 0.00736113 0.000106081)
(0.0022455 0.00671017 0.000127711)
(0.00142556 0.00617397 0.000160326)
(0.000786874 0.00559906 0.000184421)
(0.000331529 0.00453368 0.000174307)
(3.82814e-05 0.00215274 0.000144772)
(0.0051129 0.00998238 8.21602e-05)
(0.00428366 0.00979972 8.07998e-05)
(0.00340406 0.009595 9.41078e-05)
(0.00260181 0.00970376 0.000134388)
(0.00183126 0.00993877 0.000204328)
(0.0011049 0.00978097 0.000283512)
(0.000462627 0.00812499 0.00037706)
(4.11911e-05 0.00365798 0.000335939)
(0.00509346 0.0121977 7.7869e-05)
(0.00462019 0.0123411 6.43297e-05)
(0.00407881 0.0127494 6.00409e-05)
(0.00360543 0.0139719 7.93571e-05)
(0.00306928 0.0158726 0.000139378)
(0.00234747 0.0177832 0.000249007)
(0.00142144 0.0179609 0.000393934)
(0.000501491 0.0139636 0.000617482)
(3.56274e-05 0.00535475 0.000504291)
(0.00390671 0.0136909 1.82151e-05)
(0.00388793 0.0142975 -1.44975e-05)
(0.0038131 0.015379 -6.00207e-05)
(0.00387645 0.0178793 -0.000138202)
(0.00400979 0.022105 -0.000287725)
(0.00395847 0.0276846 -0.000541191)
(0.00331995 0.0320881 -0.000788585)
(0.00192335 0.0300977 -0.000457122)
(0.00058585 0.0197944 0.000547246)
(3.18611e-05 0.00648728 0.000542201)
(0.00212597 0.016132 -4.2212e-05)
(0.00232561 0.0176374 -7.34761e-05)
(0.00250065 0.0198051 -0.000123609)
(0.00283733 0.024153 -0.000226779)
(0.00347695 0.0316881 -0.000474973)
(0.00450701 0.0426897 -0.0010954)
(0.00541261 0.053877 -0.00225604)
(0.00459099 0.0564535 -0.00259324)
(0.00231868 0.0455594 -0.00064776)
(0.000712462 0.0273314 0.000799517)
(7.49587e-05 0.00908218 0.000468076)
(-0.000363435 0.0172632 -0.002914)
(0.000295952 0.0192277 -0.00330584)
(0.00106241 0.021823 -0.00380896)
(0.0021484 0.0265991 -0.0046901)
(0.00390119 0.0345665 -0.00613917)
(0.00670428 0.0460519 -0.00824573)
(0.0102334 0.0585352 -0.0105292)
(0.0122464 0.0651149 -0.0109164)
(0.0112576 0.0605054 -0.00716543)
(0.00872443 0.0475604 -0.00215029)
(0.00551606 0.0309154 0.000719468)
(0.00178801 0.0119004 0.00100997)
(0.0014424 0.00300843 0.000180917)
(0.000757964 0.00202969 0.000208367)
(0.000279213 0.00120671 0.00010469)
(4.87074e-05 0.000583966 3.01697e-05)
(-6.66976e-06 0.000143708 -7.93796e-06)
(0.00236639 0.00408461 9.20545e-05)
(0.00344484 0.0053561 6.64436e-05)
(0.00445781 0.00688121 6.17871e-05)
(0.00503545 0.00866488 6.41318e-05)
(0.00467148 0.0104207 6.48129e-05)
(0.0032428 0.0112546 2.77664e-05)
(0.00159019 0.0126163 -1.91211e-05)
(-0.000815517 0.0133006 -0.00220588)
(0.00128856 0.00202733 0.000121884)
(0.000933218 0.00163269 0.000252551)
(0.000462558 0.00110816 0.000108108)
(0.000158294 0.000675705 4.51668e-05)
(1.73648e-05 0.000320032 9.4453e-06)
(-7.62266e-06 7.10757e-05 -6.09109e-06)
(0.00184698 0.00252153 2.66065e-05)
(0.00248722 0.00320024 1.73359e-05)
(0.00306747 0.00410682 1.83316e-05)
(0.00329027 0.00521136 2.06792e-05)
(0.00281622 0.00613799 2.04714e-05)
(0.00172769 0.0062517 9.74602e-06)
(0.000748138 0.00660066 -4.5147e-06)
(-0.000726361 0.00689767 -0.00112783)
(0.000493686 0.000634886 4.19452e-05)
(0.000827603 0.000971177 0.000267672)
(0.000500626 0.000759187 9.26299e-05)
(0.000287772 0.000377026 0.000119222)
(0.0002365 0.000551 4.53969e-05)
(0.000141088 0.000290701 4.38941e-05)
(0.000101726 0.000169609 5.16592e-05)
(7.42584e-05 0.000327829 1.77986e-05)
(4.52662e-05 0.000195088 1.83684e-05)
(3.35943e-05 0.000121531 2.05043e-05)
(2.49278e-05 6.00869e-05 1.21827e-05)
(3.19172e-06 0.000149776 3.44336e-06)
(1.5089e-06 9.21448e-05 3.43957e-06)
(1.58258e-06 6.74094e-05 4.77989e-06)
(1.41162e-06 3.62381e-05 5.13424e-06)
(3.18691e-06 1.42067e-05 -2.31755e-06)
(-5.38819e-06 2.85178e-05 -3.90206e-06)
(-3.67306e-06 1.85876e-05 -3.01397e-06)
(-2.90872e-06 1.43233e-05 -2.72913e-06)
(-2.02942e-06 9.56582e-06 -2.37987e-06)
(-1.27428e-06 3.56497e-06 -2.41975e-06)
(1.12102e-07 7.40659e-07 -4.66657e-06)
(0.000646619 0.000740802 2.10783e-06)
(0.000836048 0.000943709 1.29573e-06)
(0.000997855 0.00123731 1.5399e-06)
(0.00100787 0.00157671 1.76598e-06)
(0.000773412 0.00177561 1.62424e-06)
(0.000405738 0.0016579 7.65937e-07)
(0.00014634 0.00162461 -4.42988e-07)
(-0.000252513 0.00166661 -0.000268843)
(0.00191734 0.00407352 0.000249505)
(0.00106495 0.00321796 0.000209444)
(0.000981895 0.00271003 0.000249737)
(0.000468305 0.00232808 0.000151352)
(0.000415812 0.00190044 0.00016476)
(0.000367891 0.00160942 0.000136996)
(0.000142105 0.00152387 7.84263e-05)
(0.000109225 0.00112673 7.3429e-05)
(8.96678e-05 0.000925958 5.94304e-05)
(7.24577e-05 0.000778235 4.2905e-05)
(8.33161e-06 0.00063043 6.70309e-06)
(2.23349e-06 0.0004131 6.276e-07)
(-8.53667e-07 0.000303775 -2.24667e-06)
(-3.10158e-06 0.000242663 -5.71532e-06)
(-5.23714e-06 0.000196339 -8.87522e-06)
(0.00315868 0.00559078 0.000163654)
(0.00209236 0.00484281 0.000172629)
(0.00119591 0.00395929 0.000169404)
(0.000581586 0.00317188 0.000153843)
(0.00021103 0.00232691 0.000103303)
(2.10317e-05 0.00106337 3.97396e-05)
(0.0045881 0.00733696 0.000126213)
(0.00343852 0.00678617 0.000142044)
(0.00234469 0.00607231 0.000164023)
(0.00146715 0.00548133 0.000197279)
(0.000801189 0.00488687 0.00022141)
(0.000334892 0.00392071 0.000207511)
(3.70805e-05 0.00187025 0.000164971)
(0.00592143 0.00939587 0.000118923)
(0.00482945 0.00901853 0.000121212)
(0.0037403 0.00863667 0.000142594)
(0.00278848 0.00854517 0.000198726)
(0.00192155 0.00858323 0.000291932)
(0.00114545 0.00834239 0.000394777)
(0.000476921 0.00693724 0.000496202)
(4.19454e-05 0.00317109 0.000409927)
(0.00667279 0.0117786 0.000123317)
(0.00580521 0.0114839 0.000107926)
(0.00493783 0.0114785 0.000108566)
(0.00420695 0.0121924 0.000146294)
(0.00345117 0.0134567 0.00024467)
(0.00255651 0.014762 0.000425151)
(0.00152095 0.0148476 0.000676779)
(0.000529841 0.0117536 0.000940983)
(3.59612e-05 0.00462285 0.00063628)
(0.00618222 0.0141051 0.000124485)
(0.00577914 0.0140027 0.000102278)
(0.0053216 0.0144205 8.63358e-05)
(0.00503353 0.0161372 9.22919e-05)
(0.00476317 0.019257 0.000137385)
(0.00423303 0.0233609 0.000250922)
(0.0031895 0.026597 0.000446333)
(0.0016851 0.0252615 0.000839089)
(0.000471717 0.0170668 0.0013078)
(2.64806e-05 0.00568233 0.000753276)
(0.00429023 0.0152244 5.27713e-05)
(0.00443152 0.0157061 2.36277e-05)
(0.00447686 0.0166907 -1.99424e-05)
(0.00470383 0.019438 -9.39969e-05)
(0.00511759 0.0246006 -0.000246954)
(0.00551829 0.0324613 -0.000550562)
(0.00537977 0.0411098 -0.000973504)
(0.00401805 0.0440131 -0.00086577)
(0.00186447 0.035641 0.000588875)
(0.000485402 0.0206832 0.00143817)
(2.75547e-05 0.00640554 0.000666802)
(0.0020848 0.0169444 -2.99096e-05)
(0.0024062 0.018427 -5.17881e-05)
(0.00267763 0.0204642 -9.38059e-05)
(0.00309989 0.0247214 -0.000181522)
(0.00381626 0.0324247 -0.00038934)
(0.00499929 0.0444448 -0.000940605)
(0.00646693 0.0587265 -0.0021936)
(0.00660332 0.0669938 -0.00324706)
(0.0043656 0.0615797 -0.00156686)
(0.00198924 0.0456995 0.000895067)
(0.000666106 0.0269305 0.00132021)
(7.85248e-05 0.00906581 0.000505364)
(-0.00107958 0.0175314 -0.00291785)
(-0.000412776 0.0195463 -0.00330248)
(0.000340842 0.022069 -0.00379759)
(0.00130763 0.0267079 -0.00466801)
(0.00281479 0.0345235 -0.00609421)
(0.0052728 0.0460594 -0.00814289)