/*--------------------------------*- C++ -*----------------------------------*\
  =========                 |
  \\      /  F ield         | OpenFOAM: The Open Source CFD Toolbox
   \\    /   O peration     | Website:  https://openfoam.org
    \\  /    A nd           | Version:  7
     \\/     M anipulation  |
\*---------------------------------------------------------------------------*/
FoamFile
{
    version     2.0;
    format      ascii;
    class       surfaceScalarField;
    location    "118";
    object      phi;
}
// * * * * * * * * * * * * * * * * * * * * * * * * * * * * * * * * * * * * * //

dimensions      [0 3 -1 0 0 0 0];

internalField   nonuniform List<scalar> 
126932
(
6.89678e-11
2.0894e-12
2.25027e-11
1.21801e-10
9.80632e-12
9.35744e-11
5.91308e-13
8.50498e-13
6.47601e-13
1.12774e-10
5.07205e-12
2.60845e-11
1.46672e-10
2.39929e-11
1.88586e-10
2.61605e-12
4.39119e-12
3.39039e-12
2.54683e-10
2.68883e-11
1.27522e-10
8.59106e-14
7.59626e-13
4.95932e-15
1.51621e-12
2.65682e-12
1.54663e-12
1.47545e-10
8.49994e-12
2.5464e-11
1.47695e-10
4.1193e-11
2.71736e-10
5.38865e-12
1.19722e-11
9.24808e-12
3.73139e-10
7.27258e-11
3.05582e-10
2.33553e-13
3.93979e-12
3.03755e-13
7.83338e-12
1.49082e-11
9.05327e-12
3.5398e-10
4.6826e-11
1.33769e-10
-3.02072e-14
8.64418e-13
-7.45784e-14
-2.18643e-14
2.31827e-12
3.65369e-13
2.4991e-12
5.1088e-12
2.43868e-12
1.85392e-10
1.23454e-11
2.31756e-11
1.3677e-10
5.22862e-11
3.05184e-10
6.21612e-12
2.29544e-11
1.74112e-11
4.28698e-10
1.33669e-10
4.89975e-10
-1.9671e-13
1.08131e-11
1.5894e-12
1.88706e-11
4.33749e-11
2.75618e-11
5.70204e-10
1.32225e-10
3.51593e-10
-4.86886e-13
4.44049e-12
-4.40112e-14
-4.1099e-13
1.31181e-11
2.48305e-12
1.40058e-11
2.94997e-11
1.48729e-11
4.50421e-10
6.9232e-11
1.25844e-10
-8.2206e-14
1.08632e-12
-1.39688e-13
-4.55154e-13
2.60178e-12
9.70761e-14
-2.09428e-13
4.5349e-12
1.14869e-12
3.55016e-12
8.22281e-12
3.01116e-12
2.2729e-10
1.63759e-11
1.98839e-11
1.23812e-10
5.0638e-11
2.76272e-10
3.50205e-12
3.19776e-11
2.30227e-11
4.29053e-10
1.76324e-10
5.78273e-10
-2.29831e-12
2.0898e-11
4.15803e-12
2.668e-11
8.68051e-11
5.64655e-11
7.15446e-10
2.52712e-10
6.13567e-10
-2.45495e-12
1.20082e-11
7.72987e-13
-2.65123e-12
3.85838e-11
8.62069e-12
3.75609e-11
8.85663e-11
4.76653e-11
7.51064e-10
1.99994e-10
3.46995e-10
-8.4333e-13
5.50003e-12
-2.98404e-13
-3.05808e-12
1.46024e-11
1.07464e-12
-1.52721e-12
2.63743e-11
6.92624e-12
2.06523e-11
4.81097e-11
1.8893e-11
5.5214e-10
9.2686e-11
1.09653e-10
-2.14764e-13
1.54424e-12
-2.43149e-13
-6.65167e-13
3.12184e-12
5.43187e-15
-1.04331e-12
4.99635e-12
6.78967e-13
-2.72244e-13
7.50366e-12
2.14009e-12
4.36233e-12
1.18075e-11
3.2172e-12
2.71302e-10
2.02825e-11
1.59779e-11
1.13942e-10
3.92605e-11
2.08059e-10
-1.18605e-12
3.31328e-11
2.21933e-11
4.05544e-10
1.74212e-10
5.33037e-10
-6.14941e-12
2.92872e-11
6.54149e-12
2.32217e-11
1.23843e-10
7.89623e-11
7.61703e-10
3.42557e-10
7.6515e-10
-6.88155e-12
2.27014e-11
2.62318e-12
-9.5094e-12
7.81265e-11
1.96948e-11
6.11663e-11
1.82378e-10
1.03194e-10
9.88071e-10
3.91774e-10
6.4064e-10
-3.66866e-12
1.45278e-11
3.05756e-13
-1.08317e-11
4.23556e-11
4.77491e-12
-6.19624e-12
7.99331e-11
2.19229e-11
5.88311e-11
1.46814e-10
6.26665e-11
9.28221e-10
2.71119e-10
3.09851e-10
-1.60688e-12
7.5798e-12
-6.87654e-13
-4.41052e-12
1.74155e-11
6.33812e-13
-6.76459e-12
2.88633e-11
4.30701e-12
-2.00486e-12
4.41944e-11
1.25742e-11
2.58683e-11
6.95373e-11
2.05358e-11
6.57105e-10
1.1536e-10
8.8816e-11
-5.446e-13
2.56984e-12
-4.81003e-13
-1.0318e-12
4.04003e-12
-1.2954e-13
-1.43487e-12
5.8357e-12
6.00966e-13
-1.58061e-12
8.16656e-12
1.59671e-12
-2.19138e-13
1.11297e-11
3.03703e-12
4.73058e-12
1.55319e-11
3.23719e-12
3.13606e-10
2.37564e-11
1.18758e-11
1.08613e-10
2.58833e-11
1.35661e-10
-5.79671e-12
2.69949e-11
1.68763e-11
3.81318e-10
1.36592e-10
4.03869e-10
-1.02543e-11
3.03719e-11
6.86577e-12
1.10664e-11
1.29879e-10
7.8681e-11
7.46747e-10
3.44085e-10
7.25453e-10
-1.28528e-11
3.09748e-11
4.28366e-12
-2.15428e-11
1.12475e-10
2.99422e-11
6.62038e-11
2.65332e-10
1.5115e-10
1.09826e-09
5.41757e-10
8.37143e-10
-9.3614e-12
2.64126e-11
1.98152e-12
-2.61189e-11
8.39237e-11
1.21132e-11
-1.80529e-11
1.66352e-10
4.75777e-11
1.04726e-10
3.07749e-10
1.41324e-10
1.24425e-09
5.39182e-10
5.92033e-10
-5.68664e-12
1.89636e-11
-3.56042e-13
-1.51934e-11
4.97455e-11
3.69872e-12
-2.26855e-11
8.64077e-11
1.42213e-11
-8.00949e-12
1.36045e-10
3.86964e-11
7.6127e-11
2.13992e-10
6.95352e-11
1.10306e-09
3.39765e-10
2.54245e-10
-3.24355e-12
1.1841e-11
-1.56221e-12
-6.60562e-12
2.23064e-11
-4.72985e-15
-9.33863e-12
3.35723e-11
3.82855e-12
-1.02923e-11
4.78082e-11
9.40483e-12
-1.79363e-12
6.59402e-11
1.77458e-11
2.82182e-11
9.17502e-11
2.0658e-11
7.57111e-10
1.35459e-10
6.62858e-11
-1.97462e-12
5.42315e-12
-8.78698e-13
-1.74657e-12
5.63579e-12
-3.30189e-13
-2.00077e-12
7.23002e-12
4.76914e-13
-2.15016e-12
9.36565e-12
1.55207e-12
-1.97658e-12
1.20983e-11
2.60476e-12
-2.47346e-13
1.51285e-11
3.6877e-12
4.68507e-12
1.90435e-11
3.26502e-12
3.49293e-10
2.6536e-11
7.85616e-12
1.5492e-11
8.05084e-11
1.06172e-10
-9.50983e-12
1.85473e-11
1.10491e-11
3.63485e-10
9.09105e-11
2.65331e-10
-1.32766e-11
2.45969e-11
5.4203e-12
-2.61998e-12
1.06342e-10
6.08125e-11
7.15934e-10
2.72555e-10
5.56586e-10
-1.83429e-11
3.13673e-11
4.49479e-12
-3.46704e-11
1.18379e-10
3.14936e-11
5.21098e-11
2.81314e-10
1.55547e-10
1.11044e-09
5.51519e-10
8.17611e-10
-1.62205e-11
3.4385e-11
3.44894e-12
-4.5991e-11
1.17761e-10
1.88697e-11
-3.8243e-11
2.44198e-10
7.12661e-11
1.28111e-10
4.54268e-10
2.15254e-10
1.41504e-09
7.5591e-10
8.0079e-10
-1.23372e-11
3.18588e-11
1.20438e-12
-3.48386e-11
9.54646e-11
1.00858e-11
-5.19211e-11
1.7627e-10
3.14307e-11
-2.28203e-11
2.87971e-10
8.21667e-11
1.4256e-10
4.53045e-10
1.61028e-10
1.48311e-09
6.81728e-10
4.95588e-10
-8.95012e-12
2.64071e-11
-1.737e-12
-2.11268e-11
6.16632e-11
2.24746e-12
-3.10615e-11
9.92295e-11
1.25999e-11
-3.43635e-11
1.45533e-10
2.88048e-11
-7.77156e-12
2.04532e-10
5.41344e-11
8.40564e-11
2.83449e-10
7.0013e-11
1.26571e-09
4.00397e-10
1.91043e-10
-8.47062e-12
2.12892e-11
-2.95224e-12
-1.05049e-11
3.04512e-11
-9.48604e-13
-1.2835e-11
4.12733e-11
3.12846e-12
-1.41e-11
5.46089e-11
8.97773e-12
-1.29578e-11
7.12503e-11
1.50759e-11
-2.07597e-12
8.98299e-11
2.14948e-11
2.77679e-11
1.12616e-10
2.04188e-11
8.40942e-10
1.51489e-10
4.39477e-11
-9.49201e-12
-1.79339e-12
1.67086e-11
-4.23222e-12
9.65224e-12
-6.62931e-13
-3.00965e-12
9.55807e-12
3.51414e-13
-2.87322e-12
1.1287e-11
1.42875e-12
-2.71994e-12
1.37906e-11
2.57975e-12
-2.33128e-12
1.65792e-11
3.48541e-12
-5.31179e-13
1.91291e-11
4.13326e-12
4.38654e-12
2.20414e-11
3.37305e-12
3.7328e-10
2.84201e-11
3.98637e-12
1.13541e-11
6.6018e-12
-1.19738e-11
5.4761e-11
1.58715e-10
3.51944e-10
4.62135e-11
2.35813e-10
9.49563e-11
-1.50721e-11
1.6701e-11
3.64178e-12
-1.34987e-11
7.30175e-11
3.98208e-11
6.9058e-10
1.82709e-10
3.67487e-10
-2.22792e-11
2.50008e-11
3.53248e-12
-4.46838e-11
9.66806e-11
2.50955e-11
3.13756e-11
2.31477e-10
1.22625e-10
1.08498e-09
4.40677e-10
6.37404e-10
-2.18507e-11
3.34198e-11
3.57771e-12
-6.42079e-11
1.21264e-10
1.98269e-11
-6.07892e-11
2.601e-10
7.52539e-11
1.2071e-10
4.86083e-10
2.28384e-10
1.45917e-09
7.77396e-10
8.02687e-10
-1.90377e-11
3.8447e-11
2.63848e-12
-5.78392e-11
1.2855e-10
1.56611e-11
-8.84316e-11
2.52779e-10
4.67998e-11
-4.82267e-11
4.2872e-10
1.2222e-10
1.86326e-10
6.74859e-10
2.52539e-10
1.69915e-09
9.64258e-10
6.86054e-10
-1.56204e-11
3.86783e-11
-1.492e-13
-4.37004e-11
1.1152e-10
7.72296e-12
-6.87715e-11
1.96774e-10
2.72924e-11
-7.74529e-11
3.02503e-10
5.99874e-11
-2.32076e-11
4.3685e-10
1.13797e-10
1.60707e-10
6.02942e-10
1.63163e-10
1.69573e-09
8.07333e-10
3.76534e-10
-1.5124e-11
3.68454e-11
-3.78492e-12
-2.94279e-11
7.86161e-11
2.3305e-13
-4.06797e-11
1.18802e-10
1.05193e-11
-4.69595e-11
1.64262e-10
2.67309e-11
-4.3397e-11
2.18644e-10
4.51315e-11
-9.08852e-12
2.79387e-10
6.52083e-11
8.21775e-11
3.48355e-10
6.76454e-11
1.39996e-09
4.4854e-10
1.27121e-10
-1.86781e-11
-5.19026e-12
3.56655e-11
-2.04627e-11
4.60938e-11
-2.36428e-12
-1.84468e-11
5.33907e-11
2.3711e-12
-1.86231e-11
6.53058e-11
8.18142e-12
-1.79594e-11
8.0809e-11
1.46585e-11
-1.53257e-11
9.78359e-11
2.00643e-11
-3.99515e-12
1.13592e-10
2.39819e-11
2.55635e-11
1.30342e-10
2.03888e-11
8.96815e-10
1.62322e-10
2.23379e-11
-1.6368e-11
-1.0719e-12
2.52988e-11
-3.31805e-11
-2.30535e-12
9.0291e-12
4.31653e-11
-6.3315e-12
1.50398e-11
1.86858e-13
-4.1204e-12
1.44612e-11
1.29765e-12
-3.64171e-12
1.64624e-11
2.39868e-12
-3.23299e-12
1.89351e-11
3.45687e-12
-2.82677e-12
2.1255e-11
4.18623e-12
-1.07352e-12
2.27653e-11
4.48289e-12
3.98366e-12
2.42892e-11
3.52024e-12
3.81565e-10
2.92658e-11
1.87441e-13
1.01528e-11
2.22055e-12
-1.60913e-11
4.46456e-11
2.3639e-11
-2.04205e-11
3.29828e-11
1.83169e-11
-1.706e-11
1.10487e-10
2.20219e-10
6.74011e-10
1.62665e-10
4.58177e-10
3.18391e-10
6.63769e-11
3.32833e-10
7.88919e-11
-2.47616e-11
1.68359e-11
2.3475e-12
-5.07718e-11
6.6006e-11
1.67413e-11
1.35266e-11
1.5916e-10
8.12188e-11
1.05747e-09
2.97133e-10
4.24209e-10
-2.54634e-11
2.58675e-11
2.74603e-12
-7.73191e-11
9.76214e-11
1.57029e-11
-7.86142e-11
2.13941e-10
6.04558e-11
9.82238e-11
4.01904e-10
1.83884e-10
1.44508e-09
6.2553e-10
6.36015e-10
-2.37945e-11
3.53534e-11
2.82315e-12
-7.67047e-11
1.27673e-10
1.60336e-11
-1.2147e-10
2.64134e-10
4.88318e-11
-7.75572e-11
4.61007e-10
1.29661e-10
1.90397e-10
7.26762e-10
2.74947e-10
1.76692e-09
9.98725e-10
7.01525e-10
-2.07735e-11
4.20241e-11
1.57598e-12
-6.61402e-11
1.41127e-10
1.25006e-11
-1.11597e-10
2.72043e-10
3.92227e-11
-1.29739e-10
4.41142e-10
8.66653e-11
-5.04393e-11
6.55813e-10
1.68498e-10
2.1573e-10
9.02393e-10
2.59382e-10
1.93957e-09
1.1479e-09
5.287e-10
-1.91814e-11
4.46302e-11
-1.89445e-12
-5.21076e-11
1.29223e-10
4.82746e-12
-8.30985e-11
2.24123e-10
2.27928e-11
-1.03216e-10
3.32703e-10
5.33499e-11
-9.73801e-11
4.59152e-10
9.1669e-11
-2.68672e-11
5.98672e-10
1.35845e-10
1.55981e-10
7.42083e-10
1.5461e-10
1.86554e-09
9.06588e-10
2.52012e-10
-2.16191e-11
-6.00274e-12
4.57891e-11
-4.22997e-11
9.9059e-11
-2.39094e-12
-5.25773e-11
1.44971e-10
8.19524e-12
-5.94636e-11
1.91729e-10
2.38929e-11
-6.00574e-11
2.44865e-10
4.26081e-11
-5.13693e-11
3.01036e-10
5.95263e-11
-1.57853e-11
3.53214e-10
7.21392e-11
7.39043e-11
4.03099e-10
6.47451e-11
1.48792e-09
4.80925e-10
6.4766e-11
-3.87418e-11
-3.76737e-12
6.70447e-11
-2.2307e-11
-3.07953e-12
2.78716e-11
-3.17004e-11
7.49714e-11
1.42394e-12
-2.54505e-11
8.17142e-11
7.2928e-12
-2.36724e-11
9.55409e-11
1.34802e-11
-2.13988e-11
1.1107e-10
1.95903e-11
-1.8564e-11
1.25392e-10
2.4002e-11
-7.60528e-12
1.35042e-10
2.58134e-11
2.26818e-11
1.43545e-10
2.04673e-11
9.15294e-10
1.67166e-10
1.05238e-12
-2.26396e-11
1.12192e-13
3.64953e-11
-4.88499e-11
-1.32568e-12
1.58211e-11
5.73479e-11
-4.42661e-11
-3.37192e-12
5.82821e-12
5.08389e-11
-6.50973e-13
-1.88784e-12
4.57041e-11
-8.20608e-12
2.17084e-11
1.14575e-12
-5.27062e-12
2.08709e-11
2.15974e-12
-4.3958e-12
2.25473e-11
3.18221e-12
-3.88162e-12
2.44559e-11
4.13761e-12
-3.52441e-12
2.56943e-11
4.78154e-12
-1.73896e-12
2.57231e-11
4.78784e-12
3.56292e-12
2.56009e-11
3.62214e-12
3.72847e-10
2.89851e-11
-3.81395e-12
1.01839e-11
1.41789e-12
-2.62107e-11
4.02593e-11
1.00528e-11
-5.42178e-11
3.00958e-11
6.17877e-12
-1.9383e-11
9.73929e-11
4.85206e-11
1.73878e-12
1.30863e-10
6.73555e-11
-3.76572e-11
4.74008e-11
2.45514e-11
-2.26353e-11
1.80251e-10
2.55174e-10
1.03771e-09
3.2805e-10
6.37298e-10
6.16719e-10
2.34717e-10
6.45423e-10
2.68354e-10
9.142e-11
4.55483e-10
5.83626e-11
-2.7518e-11
1.70925e-11
1.79799e-12
-8.54713e-11
6.61133e-11
1.03925e-11
-8.99431e-11
1.46708e-10
4.05219e-11
7.62103e-11
2.76923e-10
1.23442e-10
1.4197e-09
4.23766e-10
4.27173e-10
-2.65195e-11
2.64366e-11
2.15592e-12
-8.89224e-11
1.00201e-10
1.23839e-11
-1.45289e-10
2.14622e-10
3.88405e-11
-1.01665e-10
3.81461e-10
1.05007e-10
1.71026e-10
6.03106e-10
2.2568e-10
1.76167e-09
8.07766e-10
5.63613e-10
-2.37422e-11
3.63082e-11
2.01389e-12
-8.21682e-11
1.33808e-10
1.27164e-11
-1.46362e-10
2.7546e-10
3.94724e-11
-1.76407e-10
4.66796e-10
8.97093e-11
-8.28775e-11
7.09589e-10
1.79272e-10
2.27034e-10
9.75328e-10
2.8704e-10
2.01719e-09
1.1942e-09
5.48004e-10
-2.10849e-11
4.35603e-11
3.67295e-13
-6.99038e-11
1.5138e-10
9.11963e-12
-1.24734e-10
2.94076e-10
3.21027e-11
-1.65851e-10
4.69625e-10
7.33745e-11
-1.61688e-10
6.7668e-10
1.30107e-10
-5.72434e-11
9.01662e-10
1.99604e-10
2.0726e-10
1.11231e-09
2.43695e-10
2.12235e-09
1.29248e-09
3.56599e-10
-2.07082e-11
-3.33009e-12
4.70494e-11
-5.90951e-11
1.42623e-10
1.50066e-12
-9.44235e-11
2.52903e-10
1.78934e-11
-1.21706e-10
3.71619e-10
4.61187e-11
-1.31781e-10
5.01457e-10
8.27689e-11
-1.14857e-10
6.34511e-10
1.19318e-10
-4.24664e-11
7.56426e-10
1.48183e-10
1.35434e-10
8.58222e-10
1.41446e-10
1.97317e-09
9.72939e-10
1.2879e-10
-5.40033e-11
-4.52961e-12
1.12847e-10
-1.46913e-11
-3.22003e-12
4.13935e-11
-6.91695e-11
1.74571e-10
5.4775e-12
-7.34879e-11
2.27327e-10
2.06343e-11
-7.56339e-11
2.82353e-10
3.83664e-11
-7.157e-11
3.37171e-10
5.6645e-11
-6.20895e-11
3.85573e-10
7.06924e-11
-2.81614e-11
4.19138e-10
7.66559e-11
6.32881e-11
4.43461e-10
6.16027e-11
1.51475e-09
4.95301e-10
3.03248e-12
-5.57903e-11
7.02569e-13
1.03652e-10
-3.87015e-11
-2.69425e-12
5.65111e-11
-3.12445e-11
-4.44057e-12
1.92906e-11
-4.12832e-11
1.09958e-10
6.25689e-12
-3.22587e-11
1.17852e-10
1.197e-11
-2.85309e-11
1.30819e-10
1.78664e-11
-2.5625e-11
1.43292e-10
2.34337e-11
-2.31102e-11
1.51363e-10
2.72667e-11
-1.20199e-11
1.52335e-10
2.73042e-11
1.98148e-11
1.51151e-10
2.023e-11
8.93981e-10
1.65532e-10
-2.13667e-11
-2.94474e-11
1.14473e-12
5.01233e-11
-6.26058e-11
-9.48832e-14
2.47353e-11
7.31351e-11
-6.60009e-11
-2.0244e-12
1.20182e-11
6.84563e-11
-2.25896e-13
-2.97151e-12
5.98943e-11
-5.04573e-11
-4.40477e-12
3.93601e-12
5.67543e-11
-8.37514e-13
-1.48649e-12
5.1275e-11
-1.72934e-13
-5.28332e-13
4.64053e-11
-1.04589e-11
3.05636e-11
1.91191e-12
-6.52286e-12
2.84249e-11
2.80504e-12
-5.31996e-12
2.91909e-11
3.76718e-12
-4.73629e-12
2.98408e-11
4.72732e-12
-4.3435e-12
2.95057e-11
5.3423e-12
-2.351e-12
2.77375e-11
5.00212e-12
3.24913e-12
2.58252e-11
3.53286e-12
3.48674e-10
2.7558e-11
-8.23482e-12
1.02263e-11
1.08326e-12
-2.86437e-11
4.01214e-11
6.1983e-12
-9.01138e-11
2.97345e-11
3.89277e-12
-2.97422e-11
8.97072e-11
2.43763e-11
-9.65809e-11
1.19522e-10
2.89686e-11
-6.56663e-11
4.34381e-11
8.51966e-12
-2.394e-11
1.69664e-10
7.43124e-11
6.10062e-11
2.86999e-10
1.39313e-10
-2.91664e-11
1.88684e-10
9.10459e-11
-5.81186e-11
6.57539e-11
3.11095e-11
-2.80787e-11
2.57746e-10
2.58199e-10
1.3993e-09
5.35914e-10
7.41766e-10
9.6306e-10
4.74859e-10
8.97966e-10
5.2581e-10
3.25e-10
8.81148e-10
2.0085e-10
1.19593e-10
5.98939e-10
3.44957e-11
-2.79505e-11
1.71274e-11
1.39613e-12
-9.58593e-11
6.67819e-11
8.06623e-12
-1.60189e-10
1.4617e-10
2.58315e-11
-1.176e-10
2.6255e-10
7.08306e-11
1.48506e-10
4.16311e-10
1.53417e-10
1.73827e-09
5.49143e-10
3.81758e-10
-2.51627e-11
2.62734e-11
1.58366e-12
-9.14937e-11
1.02017e-10
9.66583e-12
-1.68958e-10
2.19048e-10
3.05532e-11
-2.10104e-10
3.82502e-10
7.14968e-11
-1.10402e-10
5.89581e-10
1.46056e-10
2.10351e-10
8.11169e-10
2.3896e-10
2.01272e-09
9.69067e-10
4.44809e-10
-2.17814e-11
3.58125e-11
1.19221e-12
-8.04109e-11
1.36823e-10
9.50639e-12
-1.54511e-10
2.86471e-10
3.14826e-11
-2.16099e-10
4.83685e-10
7.28322e-11
-2.18422e-10
7.22266e-10
1.33767e-10
-9.28153e-11
9.7822e-10
2.11952e-10
2.14774e-10
1.20373e-09
2.69994e-10
2.19782e-09
1.34769e-09
3.72493e-10
-1.93022e-11
-5.97418e-13
4.27517e-11
-6.83295e-11
1.55363e-10
5.61893e-12
-1.2797e-10
3.11826e-10
2.4916e-11
-1.82526e-10
5.01583e-10
6.09641e-11
-2.10588e-10
7.17216e-10
1.11645e-10
-1.8939e-10
9.39147e-10
1.67155e-10
-8.33942e-11
1.1385e-09
2.14348e-10
1.7077e-10
1.28549e-09
2.15348e-10
2.23203e-09
1.38847e-09
1.82838e-10
-5.98215e-11
-1.15537e-12
1.46267e-10
-1.05828e-11
-1.84137e-12
4.47822e-11
-1.01423e-10
2.74012e-10
1.26444e-11
-1.3369e-10
4.11547e-10
3.81674e-11
-1.54484e-10
5.54496e-10
7.19301e-11
-1.56456e-10
6.9308e-10
1.09087e-10
-1.38203e-10
8.11874e-10
1.39983e-10
-7.09444e-11
8.95025e-10
1.54163e-10
1.09244e-10
9.4251e-10
1.25918e-10
2.00149e-09
1.00206e-09
5.83901e-12
-8.31063e-11
3.14666e-12
1.94211e-10
-3.24269e-11
-2.98446e-12
1.06337e-10
-1.99023e-11
-4.42759e-12
3.44788e-11
-9.20174e-11
2.66673e-10
1.68662e-11
-9.25193e-11
3.30116e-10
3.3132e-11
-9.0709e-11
3.86999e-10
5.07164e-11
-8.52936e-11
4.34285e-10
6.76018e-11
-7.7134e-11
4.6429e-10
7.95645e-11
-4.32176e-11
4.71529e-10
7.97845e-11
5.32173e-11
4.66233e-10
5.72679e-11
1.47837e-09
4.90281e-10
-6.19657e-11
-7.12786e-11
5.38842e-12
1.47104e-10
-5.19008e-11
-7.12155e-14
9.03241e-11
-5.44448e-11
-3.9159e-12
4.44303e-11
-3.80405e-11
-6.01763e-12
1.28914e-11
-5.17058e-11
1.54996e-10
1.03599e-11
-3.94309e-11
1.60105e-10
1.55914e-11
-3.43435e-11
1.69006e-10
2.11754e-11
-3.11384e-11
1.74487e-10
2.67117e-11
-2.84455e-11
1.73449e-10
3.02541e-11
-1.6056e-11
1.63935e-10
2.82249e-11
1.78351e-11
1.52296e-10
1.88799e-11
8.36827e-10
1.57296e-10
-4.60142e-11
-3.78756e-11
1.89429e-12
6.76897e-11
-7.85821e-11
8.04556e-13
3.57295e-11
9.20764e-11
-8.46708e-11
-2.79469e-13
2.03347e-11
8.73265e-11
-8.15881e-15
-3.83532e-12
7.67526e-11
-7.63088e-11
-2.80632e-12
9.87713e-12
7.68514e-11
-3.01456e-13
-2.39004e-12
6.73387e-11
-5.70557e-14
-7.97071e-13
6.05755e-11
-5.56854e-11
-5.44491e-12
2.74072e-12
6.23256e-11
-1.01563e-12
-7.18211e-13
5.70016e-11
-2.04324e-13
-5.9672e-13
5.15478e-11
-7.73375e-14
-1.08291e-13
4.6591e-11
-1.30497e-11
4.09443e-11
2.44218e-12
-8.02877e-12
3.67539e-11
3.27084e-12
-6.45433e-12
3.5774e-11
4.28832e-12
-5.73549e-12
3.46318e-11
5.33665e-12
-5.12979e-12
3.2358e-11
5.85154e-12
-2.74354e-12
2.85888e-11
4.98206e-12
3.1786e-12
2.48549e-11
3.05728e-12
3.1293e-10
2.50615e-11
-1.29649e-11
1.01368e-11
8.34122e-13
-2.86952e-11
4.01571e-11
4.77528e-12
-9.9587e-11
2.95065e-11
2.96496e-12
-3.13806e-11
8.90007e-11
1.54512e-11
-1.68736e-10
1.17733e-10
1.76614e-11
-1.02093e-10
4.22033e-11
5.08081e-12
-3.35881e-11
1.60878e-10
4.27657e-11
-1.27204e-10
2.66844e-10
7.0738e-11
-1.18196e-10
1.73329e-10
3.99755e-11
-8.17672e-11
5.99283e-11
1.10711e-11
-2.91855e-11
2.55349e-10
9.30468e-11
1.32169e-10
5.01908e-10
2.15286e-10
1.90387e-11
4.15501e-10
1.9026e-10
-6.90218e-11
2.62238e-10
1.15874e-10
-8.01209e-11
8.64098e-11
3.73558e-11
-3.22514e-11
3.34659e-10
2.31856e-10
1.71763e-09
7.67587e-10
7.54991e-10
1.31425e-09
7.78668e-10
1.0491e-09
8.33659e-10
6.60068e-10
1.22353e-09
3.97793e-10
4.26975e-10
1.15464e-09
1.19751e-10
1.47223e-10
7.4762e-10
9.36803e-12
-2.57997e-11
1.67388e-11
1.02558e-12
-9.63952e-11
6.68696e-11
6.20993e-12
-1.81911e-10
1.47212e-10
1.99766e-11
-2.31344e-10
2.61871e-10
4.77495e-11
-1.29153e-10
4.06856e-10
9.90365e-11
1.8826e-10
5.60584e-10
1.64067e-10
1.98732e-09
6.60297e-10
3.03302e-10
-2.19369e-11
2.53836e-11
1.04541e-12
-8.56432e-11
1.01636e-10
7.19672e-12
-1.72052e-10
2.2241e-10
2.38449e-11
-2.48759e-10
3.89317e-10
5.63982e-11
-2.59423e-10
5.95432e-10
1.06646e-10
-1.23032e-10
8.14394e-10
1.73048e-10
1.95001e-10
1.00191e-09
2.25891e-10
2.18656e-09
1.09551e-09
3.0419e-10
-1.83353e-11
5.2998e-13
3.43157e-11
-7.23767e-11
1.35613e-10
6.44876e-12
-1.48376e-10
2.92369e-10
2.4014e-11
-2.26039e-10
5.00213e-10
5.84675e-11
-2.73126e-10
7.47632e-10
1.10003e-10
-2.54302e-10
1.00634e-09
1.70558e-10
-1.27629e-10
1.23471e-09
2.25205e-10
1.64118e-10
1.39033e-09
2.34007e-10
2.299e-09
1.44895e-09
1.91537e-10
-6.07558e-11
2.77091e-12
1.52929e-10
-8.67332e-12
-4.92839e-13
4.13351e-11
-1.21349e-10
3.19484e-10
1.78874e-11
-1.83058e-10
5.27355e-10
4.85126e-11
-2.30976e-10
7.61526e-10
9.31464e-11
-2.48542e-10
9.9703e-10
1.45847e-10
-2.26402e-10
1.20061e-09
1.93237e-10
-1.31035e-10
1.34268e-09
2.17245e-10
1.24266e-10
1.40879e-09
1.80004e-10
2.25426e-09
1.43001e-09
7.70207e-12
-9.87191e-11
8.10928e-12
2.8036e-10
-2.88821e-11
-1.3311e-12
1.42212e-10
-1.33826e-11
-2.5364e-12
4.07989e-11
-1.38556e-10
4.40981e-10
2.97495e-11
-1.67751e-10
6.08255e-10
5.9639e-11
-1.83875e-10
7.63561e-10
9.46156e-11
-1.85119e-10
8.91318e-10
1.29468e-10
-1.71114e-10
9.73869e-10
1.55118e-10
-1.05401e-10
1.00269e-09
1.56171e-10
8.5499e-11
9.88526e-10
1.07172e-10
1.95131e-09
9.91317e-10
-1.23443e-10
-1.07359e-10
1.31107e-11
2.92789e-10
-4.75064e-11
7.25157e-13
1.86107e-10
-4.34042e-11
-4.2902e-12
9.51591e-11
-2.48858e-11
-5.95231e-12
2.72765e-11
-1.14123e-10
3.81985e-10
2.74141e-11
-1.11523e-10
4.48963e-10
4.32599e-11
-1.08227e-10
4.98742e-10
6.01425e-11
-1.03021e-10
5.27081e-10
7.66927e-11
-9.4772e-11
5.30159e-10
8.72609e-11
-5.68457e-11
5.05795e-10
8.10118e-11
4.68729e-11
4.68896e-10
4.96149e-11
1.38588e-09
4.65467e-10
-1.32851e-10
-8.90532e-11
9.06774e-12
2.02494e-10
-6.48281e-11
2.32543e-12
1.30953e-10
-7.29426e-11
-4.48421e-13
7.51284e-11
-6.73972e-11
-5.4304e-12
3.49315e-11
-4.36463e-11
-7.69406e-12
8.5464e-12
-6.33135e-11
2.07402e-10
1.33274e-11
-4.79169e-11
2.06242e-10
1.82436e-11
-4.14313e-11
2.06558e-10
2.40806e-11
-3.75492e-11
2.01961e-10
3.00135e-11
-3.35441e-11
1.89719e-10
3.28843e-11
-1.8606e-11
1.6858e-10
2.78033e-11
1.75825e-11
1.46373e-10
1.5399e-11
7.52594e-10
1.42875e-10
-7.21152e-11
-4.74987e-11
2.38554e-12
8.79518e-11
-9.73101e-11
1.4498e-12
5.0298e-11
1.14057e-10
-1.06218e-10
9.71626e-13
3.07965e-11
1.099e-10
6.20596e-14
-4.78882e-12
9.6795e-11
-9.80735e-11
-5.79215e-13
1.80361e-11
9.8145e-11
-2.56196e-14
-3.10809e-12
8.63234e-11
6.76507e-14
-1.07378e-12
7.77017e-11
-8.4913e-11
-3.67978e-12
8.51855e-12
8.45064e-11
-3.91212e-13
-1.13307e-12
7.497e-11
-6.86747e-14
-9.18524e-13
6.73246e-11
4.98714e-14
-1.80444e-13
6.06287e-11
-6.10818e-11
-6.50988e-12
1.89969e-12
6.84327e-11
-1.18652e-12
-3.03103e-13
6.3097e-11
-2.40579e-13
-5.50684e-13
5.71962e-11
-9.04824e-14
-2.09661e-13
5.17396e-11
7.16688e-14
-1.0225e-13
4.66215e-11
-1.60522e-11
5.24297e-11
2.81853e-12
-9.76322e-12
4.51035e-11
3.70447e-12
-7.73998e-12
4.17805e-11
4.87958e-12
-6.73836e-12
3.84478e-11
5.98518e-12
-5.7282e-12
3.39918e-11
6.17668e-12
-2.81831e-12
2.80962e-11
4.55904e-12
3.346e-12
2.26838e-11
2.089e-12
2.70695e-10
2.16562e-11
-1.76444e-11
9.82267e-12
6.08248e-13
-2.60938e-11
3.98388e-11
3.64401e-12
-9.88868e-11
2.88302e-11
2.258e-12
-3.02769e-11
8.89595e-11
1.1836e-11
-1.8893e-10
1.166e-10
1.34869e-11
-1.08976e-10
4.10497e-11
3.86546e-12
-3.40925e-11
1.5995e-10
2.8656e-11
-2.43621e-10
2.62349e-10
4.438e-11
-1.90959e-10
1.68258e-10
2.35961e-11
-1.15537e-10
5.72105e-11
6.09882e-12
-3.69692e-11
2.49675e-10
6.00006e-11
-1.40715e-10
4.79512e-10
1.24611e-10
-1.5868e-10
3.88479e-10
9.8145e-11
-1.49344e-10
2.40516e-10
5.17948e-11
-1.00769e-10
7.77211e-11
1.33395e-11
-3.38363e-11
3.44101e-10
1.00122e-10
1.71744e-10
7.57662e-10
2.72426e-10
8.49551e-11
7.2947e-10
2.98185e-10
-3.96877e-11
5.79302e-10
2.4395e-10
-1.16332e-10
3.4521e-10
1.38963e-10
-9.9963e-11
1.06108e-10
4.32077e-11
-3.43444e-11
4.02903e-10
1.84937e-10
1.96459e-09
9.97971e-10
6.82259e-10
1.62508e-09
1.11902e-09
1.07472e-09
1.15399e-09
1.08683e-09
1.43023e-09
6.39728e-10
8.70085e-10
1.59708e-09
2.39273e-10
5.27101e-10
1.43635e-09
3.26874e-11
1.69473e-10
8.75347e-10
-1.56729e-11
-2.19216e-11
1.6031e-11
6.9254e-13
-8.80481e-11
6.57168e-11
4.58329e-12
-1.81418e-10
1.47429e-10
1.53589e-11
-2.67614e-10
2.63696e-10
3.70066e-11
-2.85443e-10
4.09214e-10
7.14121e-11
-1.43854e-10
5.62751e-10
1.17691e-10
1.70858e-10
6.92672e-10
1.55835e-10
2.15509e-09
7.47324e-10
2.08257e-10
-1.77443e-11
6.19878e-13
2.41727e-11
-7.38267e-11
9.91485e-11
4.98306e-12
-1.58956e-10
2.2228e-10
1.79065e-11
-2.51885e-10
3.94833e-10
4.41741e-11
-3.13704e-10
6.07191e-10
8.52181e-11
-3.00981e-10
8.32025e-10
1.35694e-10
-1.6361e-10
1.02791e-09
1.83029e-10
1.34722e-10
1.15669e-09
1.94102e-10
2.27762e-09
1.17848e-09
1.56755e-10
-6.01779e-11
4.00251e-12
1.31563e-10
-7.80198e-12
9.69704e-14
3.33473e-11
-1.31292e-10
2.91524e-10
1.72372e-11
-2.13892e-10
5.09875e-10
4.51855e-11
-2.8548e-10
7.71923e-10
8.86808e-11
-3.20777e-10
1.04557e-09
1.4301e-10
-3.01968e-10
1.28597e-09
1.94865e-10
-1.91071e-10
1.45233e-09
2.23237e-10
9.94903e-11
1.5209e-09
1.86835e-10
2.31227e-09
1.49213e-09
7.23822e-12
-1.05675e-10
1.20452e-11
3.17165e-10
-2.67566e-11
5.88186e-13
1.49722e-10
-1.04238e-11
-7.71263e-13
3.91476e-11
-1.69706e-10
5.39789e-10
3.66031e-11
-2.2958e-10
7.97536e-10
7.43322e-11
-2.72971e-10
1.05733e-09
1.21946e-10
-2.91935e-10
1.28156e-09
1.7172e-10
-2.78986e-10
1.43394e-09
2.09846e-10
-1.88554e-10
1.49688e-09
2.12302e-10
8.36459e-11
1.47335e-09
1.3852e-10
2.19483e-09
1.41366e-09
-1.7592e-10
-1.31572e-10
2.19564e-11
4.51347e-10
-4.64961e-11
2.67161e-12
2.75347e-10
-3.61057e-11
-2.1911e-12
1.34568e-10
-1.6434e-11
-3.43841e-12
3.57855e-11
-1.71487e-10
6.4831e-10
4.70601e-11
-1.99688e-10
8.33429e-10
7.79349e-11
-2.17019e-10
9.82652e-10
1.12074e-10
-2.21928e-10
1.07671e-09
1.45532e-10
-2.09647e-10
1.10583e-09
1.66847e-10
-1.36121e-10
1.07024e-09
1.53734e-10
7.20666e-11
9.91423e-10
8.18716e-11
1.83279e-09
9.39844e-10
-2.62533e-10
-1.31883e-10
2.18631e-11
4.16063e-10
-6.01587e-11
5.15111e-12
2.83693e-10
-6.32041e-11
2.97261e-13
1.71781e-10
-5.46534e-11
-6.00205e-12
8.24651e-11
-2.95364e-11
-7.68897e-12
2.08555e-11
-1.37284e-10
5.14818e-10
3.55298e-11
-1.33492e-10
5.76766e-10
5.08108e-11
-1.29476e-10
6.07063e-10
6.8205e-11
-1.23484e-10
6.07336e-10
8.54502e-11
-1.11475e-10
5.77363e-10
9.36247e-11
-6.52364e-11
5.18234e-10
7.83035e-11
4.68354e-11
4.49719e-10
3.61102e-11
1.25015e-09
4.22015e-10
-2.06625e-10
-1.08967e-10
1.1597e-11
2.66341e-10
-7.96466e-11
4.19014e-12
1.82966e-10
-9.11503e-11
2.65058e-12
1.12786e-10
-9.06329e-11
-1.08073e-12
6.33381e-11
-7.85235e-11
-7.22103e-12
2.8069e-11
-4.87758e-11
-9.45231e-12
5.69275e-12
-7.66863e-11
2.64739e-10
1.54646e-11
-5.76895e-11
2.52064e-10
2.06641e-11
-4.94119e-11
2.40429e-10
2.72851e-11
-4.39306e-11
2.23477e-10
3.34472e-11
-3.73753e-11
1.98665e-10
3.44462e-11
-1.90444e-11
1.65251e-10
2.5152e-11
1.88822e-11
1.33365e-10
9.37287e-12
6.53047e-10
1.2316e-10
-9.73111e-11
-5.8065e-11
2.73758e-12
1.10143e-10
-1.18084e-10
1.86348e-12
6.72819e-11
1.38341e-10
-1.31415e-10
1.87207e-12
4.47316e-11
1.36081e-10
1.02456e-13
-5.83646e-12
1.19853e-10
-1.22947e-10
1.04583e-12
2.85675e-11
1.23551e-10
6.57933e-14
-3.86457e-12
1.08885e-10
1.71716e-13
-1.39462e-12
9.80856e-11
-1.09324e-10
-9.94787e-13
1.66942e-11
1.07981e-10
-5.13971e-14
-1.44767e-12
9.61448e-11
7.26262e-14
-1.2627e-12
8.63711e-11
2.18025e-13
-2.62288e-13
7.77959e-11
-9.35546e-11
-4.63279e-12
7.41307e-12
9.2783e-11
-4.86316e-13
-3.84008e-13
8.30571e-11
-8.53175e-14
-8.45187e-13
7.47414e-11
5.32653e-14
-3.33904e-13
6.73343e-11
2.50984e-13
-1.41294e-13
6.05907e-11
-6.69691e-11
-7.58925e-12
1.2706e-12
7.51875e-11
-1.35323e-12
-1.56518e-13
6.96393e-11
-2.81594e-13
-4.72788e-13
6.33007e-11
-1.06394e-13
-2.46969e-13
5.73399e-11
7.83087e-14
-1.64061e-13
5.17231e-11
2.22823e-13
-2.11395e-14
4.64199e-11
-1.93185e-11
6.40555e-11
3.18505e-12
-1.16454e-11
5.28896e-11
4.24073e-12
-9.05053e-12
4.67864e-11
5.5914e-12
-7.60715e-12
4.10182e-11
6.56598e-12
-6.03789e-12
3.41806e-11
6.13018e-12
-2.63337e-12
2.61804e-11
3.69585e-12
3.53321e-12
1.94403e-11
7.71655e-13
2.26844e-10
1.76257e-11
-2.17292e-11
9.36969e-12
4.09811e-13
-2.18785e-11
3.88704e-11
2.66971e-12
-8.91411e-11
2.76441e-11
1.63137e-12
-2.6539e-11
8.84073e-11
9.01701e-12
-1.86238e-10
1.14303e-10
1.01749e-11
-1.04506e-10
3.93624e-11
2.87101e-12
-3.14607e-11
1.60101e-10
2.19835e-11
-2.77912e-10
2.59886e-10
3.36004e-11
-2.06581e-10
1.6387e-10
1.779e-11
-1.18512e-10
5.44681e-11
4.61064e-12
-3.59607e-11
2.50524e-10
4.29625e-11
-3.00597e-10
4.73452e-10
8.27477e-11
-2.75929e-10
3.77442e-10
6.02902e-11
-2.16615e-10
2.29934e-10
2.91327e-11
-1.2799e-10
7.2862e-11
6.71877e-12
-3.88288e-11
3.45614e-10
7.14681e-11
-1.56834e-10
7.45328e-10
1.75611e-10
-1.79381e-10
7.00588e-10
1.74009e-10
-2.05663e-10
5.41673e-10
1.27597e-10
-1.87517e-10
3.1396e-10
6.2247e-11
-1.18427e-10
9.36153e-11
1.51109e-11
-3.64547e-11
4.25309e-10
9.5417e-11
1.53157e-10
1.02312e-09
2.95873e-10
1.23147e-10
1.105e-09
3.83547e-10
1.36182e-11
1.0206e-09
3.87262e-10
-1.16769e-10
7.64751e-10
2.9293e-10
-1.64965e-10
4.24763e-10
1.59814e-10
-1.14232e-10
1.20809e-10
4.87867e-11
-3.44668e-11
4.56282e-10
1.27299e-10
2.12825e-09
1.20235e-09
5.47141e-10
1.86198e-09
1.45861e-09
9.78905e-10
1.44038e-09
1.56777e-09
1.47036e-09
8.98441e-10
1.43755e-09
1.86132e-09
3.89109e-10
1.07667e-09
1.97818e-09
6.55781e-11
6.07673e-10
1.67865e-09
-5.4757e-11
1.81768e-10
9.51472e-10
-4.11606e-11
-1.73951e-11
4.36097e-13
1.52457e-11
-7.42318e-11
6.36344e-11
3.17995e-12
-1.64049e-10
1.45703e-10
1.1403e-11
-2.65852e-10
2.6449e-10
2.85321e-11
-3.37263e-10
4.13703e-10
5.60761e-11
-3.30628e-10
5.72896e-10
9.09143e-11
-1.87955e-10
7.10383e-10
1.24326e-10
1.05013e-10
7.99415e-10
1.33452e-10
2.23844e-09
8.04218e-10
1.07471e-10
-5.93704e-11
3.25749e-12
9.57034e-11
-7.37682e-12
1.94061e-13
2.35534e-11
-1.35588e-10
2.18771e-10
1.27883e-11
-2.30395e-10
3.95773e-10
3.34701e-11
-3.17961e-10
6.16766e-10
6.70805e-11
-3.67443e-10
8.53189e-10
1.1072e-10
-3.55515e-10
1.06312e-09
1.54026e-10
-2.37361e-10
1.20711e-09
1.78896e-10
5.77366e-11
1.26363e-09
1.50708e-10
2.28338e-09
1.21341e-09
5.25422e-12
-1.08031e-10
1.18203e-11
2.86063e-10
-2.54436e-11
1.31785e-12
1.29029e-10
-9.13563e-12
1.52307e-14
3.2044e-11
-1.86686e-10
5.10686e-10
3.34066e-11
-2.68551e-10
7.87284e-10
6.87957e-11
-3.35775e-10
1.08112e-09
1.15936e-10
-3.7468e-10
1.34451e-09
1.67217e-10
-3.69967e-10
1.53049e-09
2.07689e-10
-2.67708e-10
1.61252e-09
2.1077e-10
4.44664e-11
1.5866e-09
1.31553e-10
2.24825e-09
1.47403e-09
-1.85242e-10
-1.4547e-10
2.64361e-11
5.39296e-10
-4.60449e-11
4.34437e-12
3.12958e-10
-3.20354e-11
2.59479e-13
1.44621e-10
-1.24182e-11
-1.13495e-12
3.62668e-11
-2.10729e-10
8.16667e-10
5.6713e-11
-2.70958e-10
1.10575e-09
9.71747e-11
-3.19221e-10
1.36166e-09
1.4405e-10
-3.47695e-10
1.54091e-09
1.90521e-10
-3.40533e-10
1.61772e-09
2.19893e-10
-2.39049e-10
1.58858e-09
1.99997e-10
6.30185e-11
1.4729e-09
8.83217e-11
2.06572e-09
1.33811e-09
-3.69779e-10
-1.61186e-10
3.55851e-11
6.63984e-10
-6.11022e-11
8.47711e-12
4.46485e-10
-5.78494e-11
2.49593e-12