/*--------------------------------*- C++ -*----------------------------------*\
  =========                 |
  \\      /  F ield         | OpenFOAM: The Open Source CFD Toolbox
   \\    /   O peration     | Website:  https://openfoam.org
    \\  /    A nd           | Version:  7
     \\/     M anipulation  |
\*---------------------------------------------------------------------------*/
FoamFile
{
    version     2.0;
    format      ascii;
    class       volVectorField;
    location    "118";
    object      U;
}
// * * * * * * * * * * * * * * * * * * * * * * * * * * * * * * * * * * * * * //

dimensions      [0 1 -1 0 0 0 0];

internalField   nonuniform List<vector> 
43868
(
(0.000655559 0.00183223 -0.000649833)
(0.00157062 0.00507185 -0.00194028)
(1.55357e-05 0.0010064 -4.40669e-06)
(0.0011956 0.00339632 -0.000829592)
(0.00187542 0.00796894 -0.0026573)
(4.55711e-05 0.00295126 -3.87343e-05)
(0.00325299 0.0105236 -0.00276837)
(-4.64701e-06 0.000453461 -1.00248e-06)
(7.0887e-05 0.00211211 -9.47377e-06)
(0.00117827 0.00430003 -0.000814019)
(0.00189268 0.0100581 -0.00278678)
(7.5192e-05 0.00499622 -0.000109291)
(0.00476579 0.0181124 -0.00472673)
(-7.66667e-06 0.00144751 -8.26158e-06)
(0.000237879 0.00691714 -8.11351e-05)
(0.00362805 0.0138188 -0.00288977)
(-7.2238e-06 0.000578514 -2.00524e-06)
(1.007e-05 0.00113295 7.4334e-07)
(0.00013269 0.00295082 -1.04556e-05)
(0.00109143 0.00480994 -0.00080629)
(0.0018616 0.0113012 -0.00263216)
(9.91232e-05 0.00682754 -0.000169523)
(0.00547191 0.0242955 -0.00590225)
(-2.2948e-06 0.00269281 -7.43531e-06)
(0.000454456 0.0127996 -0.000270885)
(0.00607145 0.0247792 -0.00537055)
(-9.01918e-06 0.00178119 6.50999e-06)
(5.53876e-05 0.00389849 1.36434e-06)
(0.000475571 0.0100081 -0.000106056)
(0.00351855 0.0157101 -0.00288713)
(-1.66712e-05 0.000659407 -2.33109e-06)
(-7.84629e-06 0.00134338 2.68154e-06)
(6.47586e-05 0.00178942 1.90904e-06)
(0.000181802 0.00356329 -1.0846e-05)
(0.000960381 0.0050611 -0.000802013)
(0.0018435 0.0119329 -0.00238712)
(0.000110507 0.00818262 -0.000146618)
(0.00567338 0.0282452 -0.0061717)
(9.11296e-06 0.00405746 3.47641e-05)
(0.000674051 0.0185611 -0.000501451)
(0.00773802 0.0344908 -0.0074)
(3.49897e-06 0.00318027 6.26723e-05)
(0.000147615 0.00769335 2.93716e-05)
(0.00097893 0.0192473 -0.000393784)
(0.00629003 0.028783 -0.00550128)
(-2.70441e-05 0.00202046 2.05624e-05)
(1.30419e-05 0.00451962 5.2251e-05)
(0.000242983 0.00630255 1.29201e-05)
(0.000674561 0.0122797 -0.000119615)
(0.00315907 0.0166639 -0.00287156)
(-3.60042e-05 0.000863124 -2.49732e-06)
(-2.77072e-05 0.00150514 6.99807e-06)
(4.19276e-05 0.0020257 5.9422e-06)
(0.000152841 0.00239971 1.83452e-06)
(0.000203717 0.00396132 -1.01819e-05)
(0.000794785 0.00514959 -0.000800058)
(0.00184548 0.0122221 -0.00216793)
(0.000109229 0.00900584 -4.29222e-05)
(0.00570182 0.0303541 -0.00592014)
(1.89481e-05 0.00528615 0.000147646)
(0.00082533 0.0229907 -0.000559299)
(0.00851556 0.0411565 -0.00834386)
(2.11206e-05 0.0045895 0.000232116)
(0.000272142 0.0120565 0.000147397)
(0.00155949 0.028904 -0.000827474)
(0.0086094 0.0410314 -0.00793047)
(-1.11331e-05 0.00357372 0.000144071)
(9.91722e-05 0.00865688 0.000245741)
(0.000523659 0.0127593 6.98144e-05)
(0.00144977 0.0240874 -0.000469068)
(0.0058317 0.0308873 -0.00548975)
(-6.12308e-05 0.00260238 7.14986e-05)
(-2.39913e-05 0.00505447 0.000108896)
(0.000182659 0.00701348 9.4394e-05)
(0.000541467 0.00853976 1.38264e-05)
(0.000774854 0.0137642 -0.000118638)
(0.00264079 0.0170239 -0.00285852)
(-0.000104231 0.00132924 1.28035e-05)
(-7.76095e-05 0.00186192 1.61499e-05)
(4.30007e-05 0.00224167 1.25349e-05)
(0.000146323 0.00264313 7.20971e-06)
(0.000243235 0.00291404 1.34148e-06)
(0.000206671 0.00418226 -8.8566e-06)
(0.000613605 0.00514941 -0.000799252)
(0.00185351 0.012348 -0.00202978)
(0.000100808 0.00943828 8.31133e-05)
(0.00569839 0.031366 -0.00554717)
(2.2981e-05 0.00616523 0.000302638)
(0.000886306 0.0257385 -0.000383918)
(0.00877704 0.0449348 -0.0083887)
(3.23791e-05 0.00575809 0.000518648)
(0.000380386 0.0160554 0.000420261)
(0.00201862 0.036672 -0.00108884)
(0.0100012 0.0499494 -0.00937904)
(1.48882e-05 0.00505859 0.000475036)
(0.000229251 0.013097 0.00071892)
(0.000878253 0.0204658 0.00023948)
(0.00242831 0.0369587 -0.00106556)
(0.00833504 0.0446877 -0.00802735)
(-3.50698e-05 0.00447046 0.000359043)
(8.40045e-05 0.0096164 0.000504012)
(0.000440765 0.0138622 0.000416794)
(0.00110577 0.0175095 7.43404e-05)
(0.00171512 0.0272892 -0.000479965)
(0.00495638 0.031748 -0.00544982)
(-0.000190938 0.00382808 0.000242284)
(-0.000132117 0.00621485 0.000243742)
(0.00020693 0.00775307 0.000185215)
(0.000527758 0.00927527 0.000114448)
(0.000852286 0.0104171 9.36758e-06)
(0.000793629 0.0145956 -0.000106124)
(0.0020494 0.0170561 -0.00284812)
(-0.000199928 0.00187909 3.78059e-05)
(-0.000214508 0.00249448 5.52298e-05)
(2.66544e-05 0.00268593 2.46411e-05)
(0.00019773 0.00290093 1.46224e-05)
(0.000279508 0.00318177 7.22573e-06)
(0.00031289 0.0033036 1.19506e-06)
(0.000205611 0.00428456 -7.42628e-06)
(0.000433172 0.00511643 -0.000798953)
(0.00184954 0.0124015 -0.00195736)
(9.2849e-05 0.00964961 0.000197497)
(0.00569116 0.0318306 -0.00523936)
(2.27543e-05 0.00668727 0.000438795)
(0.000891594 0.0272107 -0.000104777)
(0.0088344 0.0468457 -0.00806756)
(3.52477e-05 0.00653451 0.000830363)
(0.000437848 0.0189365 0.000797135)
(0.00225178 0.0416372 -0.000995065)
(0.0106393 0.0552911 -0.00978467)
(3.07105e-05 0.00616815 0.000974904)
(0.000337367 0.0168946 0.00146339)
(0.00119896 0.027688 0.000595648)
(0.00329011 0.0477228 -0.00155655)
(0.0100878 0.0551806 -0.00971043)
(7.39519e-06 0.00602306 0.000974936)
(0.000260862 0.0142987 0.00141812)
(0.000783767 0.0215867 0.00114667)
(0.00178984 0.0284709 0.000245066)
(0.0029768 0.0424116 -0.00114071)
(0.00726455 0.0463272 -0.00797235)
(-0.000145728 0.00607519 0.000935957)
(-5.98175e-06 0.0116047 0.00106167)
(0.000529042 0.0152341 0.000823657)
(0.00109103 0.0186433 0.000506214)
(0.00171539 0.0214795 5.79207e-05)
(0.00177794 0.0291071 -0.00043595)
(0.0038798 0.0319036 -0.00540913)
(-0.000388274 0.00575373 0.00121972)
(-0.000450383 0.00822552 0.000589122)
(0.000187095 0.00924904 0.000372032)
(0.000703024 0.0101677 0.000221828)
(0.000973596 0.0112389 0.000116897)
(0.00109384 0.011826 9.02043e-06)
(0.000780871 0.0149865 -8.91398e-05)
(0.00145051 0.0169609 -0.00284023)
(-0.000883917 0.00842267 0.00308094)
(-0.000600457 0.00309912 0.000132161)
(-1.67978e-05 0.0034136 6.65732e-05)
(0.000251984 0.00340055 2.77567e-05)
(0.000393637 0.00349265 1.46823e-05)
(0.000404846 0.00362517 7.12808e-06)
(0.000359104 0.00358156 1.60803e-06)
(0.000209803 0.00432907 -6.22824e-06)
(0.000259602 0.00508849 -0.0007988)
(9.10607e-05 0.00975147 0.000280086)
(0.00567819 0.032043 -0.00502747)
(0.00182909 0.0124592 -0.00184003)
(2.14928e-05 0.00696617 0.000527551)
(0.00087949 0.0279453 0.000157233)
(0.00883278 0.0477659 -0.0077346)
(3.28086e-05 0.00696413 0.0010809)
(0.000453398 0.0206573 0.00113875)
(0.00232055 0.0443641 -0.000687937)
(0.0108811 0.0581321 -0.00964011)
(3.44816e-05 0.00680387 0.00145839)
(0.000391393 0.0194801 0.00226031)
(0.00139298 0.0329452 0.00109259)
(0.00379544 0.0548215 -0.00163861)
(0.0110479 0.0617494 -0.0103568)
(3.28291e-05 0.00693792 0.00173279)
(0.000397782 0.0179628 0.0027245)
(0.00108296 0.0284372 0.00223174)
(0.00241841 0.038937 0.000594266)
(0.00418184 0.0554198 -0.00177011)
(0.00904247 0.0577331 -0.00969974)
(-5.17302e-05 0.00736964 0.00196891)
(0.000246461 0.0165824 0.00270746)
(0.000953708 0.0233389 0.00222615)
(0.00175908 0.0295748 0.00137586)
(0.00273909 0.0351552 0.000200606)
(0.00314086 0.0455763 -0.00105856)
(0.00576686 0.0467612 -0.00787971)
(-0.000364333 0.00832374 0.00281595)
(-0.000318592 0.0147061 0.00232639)
(0.000568609 0.0178897 0.00160696)
(0.00142071 0.020317 0.000993218)
(0.0019316 0.0227845 0.000521116)
(0.00218978 0.0244231 5.75491e-05)
(0.00172946 0.0299791 -0.000366224)
(0.00275796 0.031767 -0.00537544)
(-0.00143345 0.0140444 0.00463006)
(-0.00130602 0.0109684 0.00205159)
(8.73018e-05 0.0116509 0.000801374)
(0.000891553 0.0118646 0.000426589)
(0.00134464 0.0123111 0.000228989)
(0.00139845 0.0128391 0.00011561)
(0.00125168 0.0128168 1.63987e-05)
(0.000773704 0.0151578 -7.32465e-05)
(0.00087081 0.0168737 -0.00283453)
(-0.00146509 0.00994709 0.00377284)
(-0.00401232 0.00958812 0.0368787)
(-0.000127908 0.00418124 0.000149478)
(0.000319432 0.00418342 7.06627e-05)
(0.000524857 0.00406121 2.84078e-05)
(0.000573977 0.00400975 1.45107e-05)
(0.000504494 0.00398003 7.57916e-06)
(0.000392472 0.00378644 2.39442e-06)
(0.000218758 0.00436453 -5.35161e-06)
(9.33023e-05 0.0050871 -0.000798509)
(2.14395e-05 0.00710933 0.00058037)
(0.000868609 0.0283071 0.000340551)
(9.32567e-05 0.00987527 0.000389176)
(0.00882464 0.0482071 -0.00749246)
(0.00564861 0.0322898 -0.00470918)
(0.00180408 0.0124881 -0.00158425)
(2.94209e-05 0.0071774 0.00125118)
(0.000453758 0.0215828 0.00136815)
(0.00232073 0.0457556 -0.000360616)
(0.0109615 0.0595638 -0.00937322)
(3.18211e-05 0.0070969 0.00180508)
(0.000405002 0.0209519 0.00290333)
(0.00147182 0.0361057 0.00155898)
(0.00399629 0.0588251 -0.0014097)
(0.0114943 0.0653906 -0.0103743)
(3.97855e-05 0.00729686 0.00235361)
(0.000453679 0.0201811 0.00397079)
(0.00125269 0.0332315 0.00336412)
(0.00282567 0.0466426 0.00109623)
(0.00497016 0.0642263 -0.00200341)
(0.0101344 0.0651037 -0.0104337)
(1.2185e-05 0.00774375 0.00289387)
(0.000438664 0.0198318 0.00467544)
(0.00129114 0.0299936 0.00414962)
(0.00233383 0.0395826 0.00262651)
(0.00368445 0.0483598 0.000496527)
(0.00451382 0.0600093 -0.00168751)
(0.00730545 0.0585772 -0.00956224)
(-0.000175768 0.00878984 0.00396881)
(8.9789e-05 0.0195078 0.00502708)
(0.00109485 0.0264657 0.00404639)
(0.00220892 0.0317266 0.00267343)
(0.00299565 0.0365195 0.00141458)
(0.00346872 0.0400445 0.000198205)
(0.00303509 0.0471356 -0.000889279)
(0.00412937 0.0466542 -0.00779217)
(-0.0010782 0.0126156 0.00663807)
(-0.00111715 0.0185366 0.00565362)
(0.000499827 0.0217666 0.00321262)
(0.00178014 0.0233575 0.00186363)
(0.00258707 0.0247907 0.00103345)
(0.00273918 0.0261161 0.000516947)
(0.00249003 0.0264503 9.01724e-05)
(0.00165503 0.0303648 -0.00029688)
(0.00166005 0.0316193 -0.00535034)
(-0.00288904 0.0208666 0.00691081)
(-0.00215818 0.013837 0.0215233)
(-0.000200715 0.0148888 0.00240946)
(0.0011088 0.0144698 0.000874624)
(0.00177172 0.0142298 0.000441242)
(0.0019484 0.0141568 0.000228221)
(0.00173631 0.0141005 0.000121245)
(0.00135954 0.0135339 2.92891e-05)
(0.000776855 0.0152863 -6.07598e-05)
(0.000313678 0.0168709 -0.00283027)
(-0.000281947 0.011133 0.00391711)
(-0.00432045 0.0117867 0.0391146)
(-0.00538209 0.00544869 0.0417164)
(-0.000678234 -0.000468726 0.0266408)
(0.000384533 0.00508311 0.000160847)
(0.000684757 0.00494115 7.36118e-05)
(0.000759382 0.00466029 2.90566e-05)
(0.000713515 0.00445847 1.51878e-05)
(0.000584263 0.00427429 8.60517e-06)
(0.000421597 0.00395882 3.31361e-06)
(0.00022822 0.00442162 -4.74554e-06)
(-7.50872e-05 0.00511813 -0.000798193)
(2.90466e-05 0.00727894 0.00135644)
(0.000453794 0.0220613 0.00150658)
(2.25811e-05 0.00729004 0.000659056)
(0.00230563 0.0464522 -0.00012111)
(0.00085169 0.0287557 0.000598948)
(9.32583e-05 0.00999615 0.000525857)
(0.0109857 0.0602779 -0.0091501)
(0.00881161 0.0487443 -0.00710154)
(0.00560259 0.0324807 -0.00412353)
(0.00179048 0.0124478 -0.0012445)
(2.83131e-05 0.00721337 0.00201522)
(0.000402934 0.0217076 0.00333672)
(0.00149445 0.037817 0.00188595)
(0.00404774 0.0609142 -0.00110038)
(0.0116855 0.0672947 -0.0101934)
(3.72056e-05 0.00736787 0.00274513)
(0.000457922 0.0212921 0.00486944)
(0.00131405 0.0360328 0.00427487)
(0.00301459 0.0513117 0.0015886)
(0.00534543 0.0693098 -0.00188174)
(0.010708 0.069316 -0.0105328)
(3.48606e-05 0.00765382 0.00349554)
(0.000509984 0.0213762 0.00627876)
(0.00144827 0.0342375 0.0059472)
(0.00267767 0.0467726 0.00390182)
(0.00432478 0.0581692 0.000937549)
(0.00548661 0.0699678 -0.00196494)
(0.00832222 0.0663656 -0.0102804)
(-3.37386e-05 0.00829716 0.00453671)
(0.000408678 0.0217076 0.00748144)
(0.00149016 0.0325758 0.00691233)
(0.00280238 0.0414971 0.00493022)
(0.0038825 0.0493576 0.00267549)
(0.00464264 0.055187 0.000476855)
(0.00437493 0.0623394 -0.00141199)
(0.00528302 0.0585879 -0.00940455)
(-0.000447384 0.0101119 0.00674736)
(-0.000346111 0.0222443 0.00906318)
(0.00113684 0.0302752 0.00706339)
(0.00269798 0.0353328 0.0047125)
(0.00383245 0.0391111 0.0027842)
(0.00417758 0.0420296 0.0014004)
(0.00390183 0.04332 0.000285036)
(0.00280772 0.0478347 -0.000706657)
(0.00249519 0.046473 -0.00772381)
(-0.00236924 0.0242968 0.011833)
(-0.0014437 0.0123896 0.0141644)
(0.000191759 0.0263537 0.00700475)
(0.00215344 0.0276066 0.00354232)
(0.00333381 0.0282048 0.00193056)
(0.00371031 0.0285722 0.00103195)
(0.00337775 0.0286854 0.000541162)
(0.00267569 0.027877 0.000147478)
(0.0015816 0.030633 -0.000240778)
(0.000599621 0.0316196 -0.00533176)
(-0.000627774 0.0251682 0.00760777)
(-0.00496068 0.0206481 0.0265278)
(-0.00298969 0.0101336 0.0266775)
(0.00129993 0.018011 0.00247795)
(0.002273 0.0171237 0.000910286)
(0.00255146 0.0163375 0.00044684)
(0.00242142 0.0157306 0.000237217)
(0.00200185 0.0151291 0.000135537)
(0.00144751 0.0141279 4.40554e-05)
(0.000779283 0.0154827 -5.19072e-05)
(-0.00025255 0.0169741 -0.00282908)
(0.000542854 0.0121044 0.00404378)
(-0.00104394 0.0136762 0.0389122)
(-0.00573399 0.00785309 0.0448813)
(-0.000484722 -0.000553867 0.0266218)
(-0.00609913 0.00319501 0.0421926)
(-0.000778734 -0.000737857 0.0266017)
(-0.000112753 -9.81804e-05 0.0412425)
(0.000876888 0.00603545 0.000176594)
(0.000965542 0.00564602 7.76413e-05)
(0.000932355 0.00520668 3.1001e-05)
(0.000823595 0.00485667 1.68384e-05)
(0.000657091 0.00454549 1.00154e-05)
(0.000446917 0.0041273 4.21681e-06)
(0.000231447 0.00450728 -4.46279e-06)
(-0.000259065 0.00517322 -0.00079799)
(2.82753e-05 0.00725588 0.00213528)
(0.000399885 0.0220817 0.00360042)
(3.07247e-05 0.00739801 0.00149844)
(0.00149843 0.0387079 0.00209062)
(0.000454955 0.0226651 0.00171408)
(2.30659e-05 0.00749431 0.000809785)
(0.00405086 0.0619774 -0.000858695)
(0.00227324 0.0473254 0.0002272)
(0.000809008 0.0292259 0.000980095)
(8.66187e-05 0.0100322 0.000672449)
(0.011766 0.068274 -0.0100113)
(0.0110024 0.0611739 -0.00876614)
(0.00877125 0.0492293 -0.00628738)
(0.00555819 0.0324693 -0.00328438)
(0.00178389 0.0123325 -0.000832877)
(3.30814e-05 0.00734175 0.00296099)
(0.000448116 0.0217912 0.00541544)
(0.00132399 0.0375122 0.004891)
(0.00308205 0.0538588 0.00194869)
(0.00548868 0.0720151 -0.00163502)
(0.0109861 0.0715789 -0.0104063)
(3.69922e-05 0.00745309 0.00381047)
(0.000510649 0.0219295 0.00730173)
(0.00148045 0.0365051 0.00724068)
(0.00281963 0.0510723 0.00492365)
(0.00464842 0.0641587 0.00138813)
(0.00600792 0.075815 -0.00190071)
(0.00889971 0.070905 -0.0103838)
(1.95755e-05 0.00772589 0.00477986)
(0.000527793 0.0222499 0.00909835)
(0.00164415 0.0358832 0.00923254)
(0.00308959 0.0480283 0.00700205)
(0.00442255 0.0587545 0.00393872)
(0.00545689 0.066489 0.000881084)
(0.00536912 0.0729536 -0.00162454)
(0.00607895 0.0665339 -0.0100618)
(-0.000123003 0.00844487 0.00629972)
(0.000237161 0.0229036 0.0111214)
(0.00160768 0.0351153 0.0106475)
(0.00330777 0.0444897 0.00804676)
(0.00471602 0.0517296 0.00510733)
(0.00533819 0.057031 0.00262998)
(0.00516488 0.0596397 0.000630164)
(0.00395853 0.0633999 -0.0010823)
(0.00320791 0.0584165 -0.00927271)
(-0.00100238 0.0242155 0.0142387)
(-0.000607448 0.0098164 0.00974374)
(0.000963332 0.0337177 0.0118811)
(0.00314867 0.0395732 0.00789522)
(0.0047594 0.043146 0.00487265)
(0.00541958 0.0452347 0.00277255)
(0.00509289 0.0461497 0.00146022)
(0.00411913 0.0455303 0.000440907)
(0.00253439 0.04828 -0.000553254)
(0.000903526 0.0464855 -0.00767344)
(-0.000296615 0.0325548 0.0137565)
(-0.00361267 0.0239288 0.0218379)
(-0.00181825 0.0107677 0.0176122)
(0.00242694 0.0325665 0.00730143)
(0.00414472 0.0328722 0.00363975)
(0.00476267 0.0324248 0.00194526)
(0.00460192 0.0317133 0.00106729)
(0.00386358 0.0307245 0.000603643)
(0.00280688 0.0290294 0.000213507)
(0.0014987 0.0310145 -0.000200928)
(-0.000483993 0.0318141 -0.00532654)
(0.00153425 0.0283814 0.00776288)
(-0.00137041 0.0252451 0.027038)
(-0.00630165 0.016714 0.033371)
(-0.0036561 0.00661276 0.0287887)
(0.00283613 0.0210985 0.00255137)
(0.00320733 0.0195461 0.000942468)
(0.00313764 0.0182257 0.000468312)
(0.00279224 0.0171059 0.000259875)
(0.00223734 0.0160626 0.000156042)
(0.00151873 0.0147041 5.80548e-05)
(0.00075858 0.015773 -4.76971e-05)
(-0.000869003 0.0171534 -0.00283187)
(0.00125917 0.0132617 0.00420822)
(0.000870295 0.0152173 0.0389193)
(-0.00158258 0.00991974 0.0446752)
(-5.14275e-05 -0.000544149 0.0266127)
(-0.00698233 0.00572941 0.0457918)
(-0.000568446 -0.00090773 0.0266327)
(-0.000120771 -0.00011336 0.0416412)
(-0.00655544 0.00223012 0.0417538)
(-0.000835989 -0.000404613 0.0265414)
(-0.000118849 -0.000189859 0.0414655)
(-4.51108e-05 -1.34259e-05 0.0371683)
(0.00120947 0.0069207 0.000195294)
(0.00116319 0.00631177 8.38511e-05)
(0.00106673 0.00570986 3.43664e-05)
(0.000930157 0.00524128 1.92705e-05)
(0.00072787 0.00482532 1.16566e-05)
(0.000459551 0.00429935 4.97654e-06)
(0.000216852 0.00460574 -4.67409e-06)
(-0.000463098 0.00523009 -0.000797991)
(3.29182e-05 0.00730137 0.0030764)
(0.000442337 0.0220077 0.00572623)
(3.04461e-05 0.00729239 0.00229377)
(0.00131924 0.0382653 0.00526943)
(0.00039422 0.0225293 0.00395994)
(2.99578e-05 0.00749452 0.001699)
(0.00310115 0.0551937 0.00218132)
(0.00149649 0.0398329 0.00239765)
(0.000448249 0.0233623 0.00212194)
(2.24868e-05 0.00760944 0.00100011)
(0.00553736 0.0734124 -0.0014272)
(0.00403451 0.0633249 -0.000497233)
(0.00217753 0.0482845 0.000785938)
(0.000744553 0.0294416 0.00141542)
(7.82795e-05 0.00994991 0.000801637)
(0.0111184 0.0727681 -0.0102552)
(0.011853 0.0695309 -0.00967536)
(0.0109702 0.0620644 -0.00787954)
(0.00870391 0.0493758 -0.00506333)
(0.00551964 0.0322285 -0.00221921)
(0.00178128 0.012173 -0.000382605)
(3.41482e-05 0.0072803 0.00395725)
(0.000494212 0.022065 0.00786951)
(0.00146741 0.0376084 0.00803215)
(0.00285678 0.0533946 0.00561918)
(0.00478091 0.067449 0.00172893)
(0.00624516 0.0789704 -0.00170329)
(0.00920141 0.0733857 -0.0102664)
(3.10452e-05 0.0073073 0.00485406)
(0.00053702 0.0221557 0.00997189)
(0.00164946 0.0373659 0.0107244)
(0.00316305 0.0517057 0.0084858)
(0.00466396 0.0644669 0.00494736)
(0.00589288 0.0734265 0.0012936)
(0.00594144 0.0792486 -0.00154156)
(0.00655279 0.0712131 -0.0101261)
(-1.25012e-05 0.0075124 0.00593733)
(0.000466184 0.022447 0.0121176)
(0.00177165 0.0371243 0.0130654)
(0.00353236 0.0499535 0.0107382)
(0.00514509 0.0604559 0.00720999)
(0.0060412 0.0681038 0.00384242)
(0.00603637 0.071817 0.00107983)
(0.00481514 0.0743253 -0.00117177)
(0.0037091 0.0664003 -0.00986522)
(-4.85827e-05 0.0231036 0.0148278)
(-0.000190804 0.00811591 0.0076381)
(0.00155344 0.0367537 0.0152063)
(0.00373151 0.0473924 0.0120479)
(0.00561403 0.0551107 0.00829153)
(0.00658972 0.0601057 0.0050539)
(0.00642389 0.0625833 0.00272526)
(0.00533922 0.0624999 0.000921666)
(0.0034018 0.0640223 -0.000792338)
(0.00116262 0.0584495 -0.00917547)
(0.000606137 0.0360432 0.0178203)
(-0.00160935 0.0237155 0.019059)
(-0.000738909 0.00915098 0.0113812)
(0.00342277 0.0433611 0.012717)
(0.00566016 0.0477944 0.00806023)
(0.00672371 0.0497853 0.00486899)
(0.00668758 0.0501372 0.00284596)
(0.0057476 0.0492829 0.00162416)
(0.00421632 0.0472419 0.000621666)
(0.00222535 0.0488542 -0.000443633)
(-0.000734772 0.0467727 -0.00765901)
(0.00257778 0.0389172 0.0139601)
(-0.000909694 0.0323666 0.0239721)
(-0.0044695 0.0219731 0.0270366)
(-0.00219243 0.00861642 0.0198511)
(0.00492467 0.0382864 0.00738453)
(0.00584035 0.0375437 0.00369895)
(0.00586299 0.0360982 0.00201874)
(0.00529177 0.0343869 0.0011614)
(0.00427283 0.0325291 0.000693802)
(0.0028947 0.0301339 0.000276035)
(0.0013662 0.0315663 -0.000182498)
(-0.00165693 0.03214 -0.00533835)
(0.00356886 0.031762 0.00799782)
(0.00155618 0.0287226 0.0268856)
(-0.00198817 0.0213971 0.034056)
(-0.00765864 0.0127923 0.036614)
(-0.00413176 0.00434569 0.0295601)
(0.00393985 0.023934 0.00264489)
(0.0038809 0.0217926 0.00100211)
(0.00359237 0.0199419 0.000510128)
(0.0031425 0.0184171 0.000294328)
(0.00245996 0.0170153 0.00018006)
(0.00154469 0.0152908 6.92641e-05)
(0.000677102 0.0161014 -5.02376e-05)
(-0.00154845 0.0173291 -0.00283793)
(0.00169704 0.0143842 0.00438745)
(0.00246446 0.0169844 0.0392154)
(0.00082966 0.0116248 0.044661)
(3.8824e-05 -0.000529545 0.0266796)
(-0.00221413 0.0079552 0.0456252)
(-7.56655e-05 -0.000922218 0.0266296)
(1.89098e-05 -0.000118573 0.0417159)
(-0.00804758 0.00490523 0.0454784)
(-0.000643939 -0.000501619 0.026607)
(-0.000128107 -0.000222953 0.0419189)
(-2.33155e-05 -1.75462e-05 0.0372848)
(-0.00689052 0.00158629 0.0413629)
(-0.000867549 -0.00016957 0.0264639)
(-0.000125635 -0.000174062 0.0416065)
(-4.65042e-05 -4.04597e-05 0.0371997)
(1.38882e-05 -1.09099e-05 0.0386098)
(0.00143719 0.00777088 0.000217304)
(0.00131646 0.00694122 9.23428e-05)
(0.00120657 0.00621344 3.90672e-05)
(0.00104717 0.00565135 2.23572e-05)
(0.000786908 0.00512831 1.34222e-05)
(0.000443155 0.00445635 5.47746e-06)
(0.000172127 0.00467863 -5.52192e-06)
(-0.000675807 0.00524714 -0.000798676)
(3.38845e-05 0.00716365 0.00402491)
(0.000483839 0.022067 0.00817282)
(3.4856e-05 0.00722703 0.00321869)
(0.00144966 0.0381313 0.00848902)
(0.000434664 0.0222341 0.00613598)
(3.00417e-05 0.00726033 0.00250876)
(0.00285767 0.0546013 0.00605067)
(0.00130376 0.0391757 0.00578468)
(0.000369935 0.0229577 0.00449701)
(2.54366e-05 0.00747162 0.00189845)
(0.00482876 0.0691838 0.00195465)
(0.00311041 0.0568867 0.00253382)
(0.0014625 0.0411552 0.00300456)
(0.000425394 0.0237899 0.00264699)
(2.08578e-05 0.007579 0.00119347)
(0.00634756 0.0806171 -0.00152939)
(0.00557683 0.0752013 -0.00110814)
(0.00392009 0.0648662 0.000129379)
(0.00202017 0.0488196 0.0014828)
(0.00067336 0.0292944 0.0018479)
(7.18355e-05 0.00976508 0.000882721)
(0.00935451 0.0747067 -0.0101228)
(0.0112775 0.0743177 -0.00996177)
(0.0118846 0.070865 -0.0088159)
(0.0108756 0.0624958 -0.00644306)
(0.00862273 0.0491186 -0.00345467)
(0.00548959 0.0318394 -0.00102605)
(0.0017813 0.0120267 7.03859e-05)
(3.10325e-05 0.00703885 0.00486153)
(0.000518388 0.0219265 0.0103922)
(0.00161178 0.0379529 0.0115642)
(0.00314948 0.0535985 0.00939821)
(0.00474318 0.0675985 0.00563802)
(0.00608835 0.0772578 0.00160866)
(0.00622665 0.082671 -0.00135062)
(0.00681144 0.0737924 -0.00998776)
(1.65696e-05 0.0069951 0.00570303)
(0.000510334 0.0218481 0.0125187)
(0.00175875 0.0377323 0.0144177)
(0.0035309 0.0527396 0.0124776)
(0.00527054 0.065548 0.00870762)
(0.00636835 0.0748887 0.0048029)
(0.00651425 0.0793031 0.00151075)
(0.00532151 0.0808287 -0.00101754)
(0.00401356 0.0711193 -0.00987966)
(0.000339927 0.021989 0.0147811)
(-4.39034e-05 0.00719761 0.00667586)
(0.00176604 0.0375081 0.0170159)
(0.0038802 0.0514523 0.0149188)
(0.00591053 0.0627223 0.011034)
(0.00715277 0.0705662 0.00709084)
(0.00720409 0.0746969 0.00395326)
(0.006139 0.0750986 0.00149123)
(0.00400669 0.0750787 -0.000754946)
(0.00134282 0.0664541 -0.00971961)
(0.0013508 0.0371447 0.0197304)
(-0.00031786 0.0224877 0.0174521)
(-0.000236771 0.00776756 0.00841357)
(0.00395893 0.0493201 0.0167232)
(0.0064074 0.0583601 0.01228)
(0.00786024 0.0640017 0.00821557)
(0.00807553 0.0665571 0.00514424)
(0.00712642 0.066587 0.00301955)
(0.00529563 0.06459 0.00126422)
(0.00275915 0.0647424 -0.000583058)
(-0.000958691 0.0588097 -0.00914716)
(0.00349057 0.0459222 0.0185603)
(0.000194438 0.0356468 0.0231038)
(-0.00203272 0.022753 0.0219893)
(-0.000880468 0.00814573 0.0127787)
(0.00639009 0.0519463 0.0127818)
(0.00794089 0.0548727 0.0080637)
(0.00827269 0.0553271 0.00499168)
(0.00764029 0.0541292 0.0030719)
(0.0062455 0.0519398 0.00186268)
(0.00422283 0.0488472 0.000791832)
(0.00183192 0.0496579 -0.000394136)
(-0.0024916 0.0472277 -0.00768939)
(0.00561526 0.0448932 0.0140105)
(0.00246669 0.0389609 0.0238358)
(-0.00142272 0.0304438 0.029572)
(-0.00540897 0.0191916 0.0308377)
(-0.00249941 0.00664432 0.021124)
(0.00688182 0.0433862 0.00748773)
(0.00710267 0.0417374 0.00385924)
(0.00671151 0.0393535 0.0021787)
(0.00591678 0.0368765 0.00130682)
(0.0046397 0.0343378 0.000798894)
(0.00289004 0.031253 0.000325703)
(0.00111847 0.0321752 -0.000194084)
(-0.00293648 0.0324311 -0.00536362)
(0.00491313 0.034922 0.0082833)
(0.00423758 0.0323375 0.0269834)
(0.00143413 0.0250484 0.0338675)
(-0.00277834 0.0175399 0.0374995)
(-0.00892281 0.0101108 0.0380204)
(-0.00449156 0.00289533 0.0298381)
(0.00471421 0.0266203 0.00279407)
(0.0044027 0.0238912 0.00109225)
(0.00405281 0.0216388 0.000572024)
(0.0035178 0.019801 0.000338105)
(0.00263864 0.0180379 0.000205733)
(0.00147277 0.015822 7.61749e-05)
(0.000497831 0.0163305 -6.06599e-05)
(-0.00224702 0.0173528 -0.00284803)
(0.00199791 0.0155438 0.00459682)
(0.00341702 0.0186576 0.0397672)
(0.0028279 0.0134852 0.0449722)
(9.59375e-05 -0.000513174 0.0268618)
(0.000618368 0.00984978 0.0456013)
(3.11693e-05 -0.000917787 0.0267003)
(0.000104763 -0.000121916 0.0418517)
(-0.0029002 0.00730867 0.0453362)
(-0.000103901 -0.000508006 0.0266138)
(1.64435e-05 -0.000236672 0.042006)
(9.57383e-05 -1.99925e-05 0.0373779)
(-0.00892031 0.00431895 0.0451178)
(-0.000701386 -0.000192316 0.0265469)
(-0.0001375 -0.000207049 0.042105)
(-2.53603e-05 -5.06901e-05 0.0373213)
(8.15744e-05 -1.15875e-05 0.0386819)
(-0.00712283 0.00108567 0.041127)
(-0.000885292 -7.57557e-05 0.0263989)
(-0.000132106 -0.00015527 0.0416658)
(-4.86949e-05 -5.73164e-05 0.0372273)
(1.36607e-05 -2.69673e-05 0.0386126)
(4.68217e-05 -1.50688e-06 0.0381051)
(0.00161565 0.00858893 0.000242731)
(0.0014897 0.00759213 0.000103469)
(0.00137746 0.00676942 4.5213e-05)
(0.00116676 0.00611634 2.61088e-05)
(0.000810753 0.00544062 1.52336e-05)
(0.000384682 0.00455316 5.72212e-06)
(9.58832e-05 0.00466328 -6.95589e-06)
(-0.000877541 0.00516573 -0.000800668)
(3.06056e-05 0.00687877 0.00485069)
(0.000504216 0.0217314 0.0105905)
(3.49678e-05 0.00699615 0.00409692)
(0.00157807 0.0381688 0.0120224)
(0.000469582 0.0220099 0.00854769)
(3.3111e-05 0.00704054 0.00337539)
(0.00311913 0.0545457 0.00993074)
(0.00141784 0.0387137 0.00908668)
(0.000405914 0.022317 0.00671516)
(2.61403e-05 0.00710063 0.00269117)
(0.00475986 0.0692468 0.00607004)
(0.00284174 0.0560745 0.00663962)
(0.00124092 0.0401324 0.00657389)
(0.000327459 0.0230464 0.00504755)
(1.98423e-05 0.00728267 0.00204362)
(0.00616896 0.0792869 0.0018196)
(0.00486912 0.0713977 0.00230152)
(0.00305447 0.058914 0.00324631)
(0.00138042 0.0420197 0.00381204)
(0.000388773 0.0237715 0.00319838)
(1.91411e-05 0.00739906 0.0013331)
(0.00636206 0.0844659 -0.00118854)
(0.00645935 0.0827397 -0.0012601)
(0.00551097 0.077302 -0.000518697)
(0.00368148 0.0658383 0.0009885)
(0.00183362 0.0487313 0.0022579)
(0.000617902 0.0288264 0.0021927)
(6.9092e-05 0.00954316 0.000907115)
(0.00694747 0.0751746 -0.00983393)
(0.00954801 0.0764433 -0.00984286)
(0.0113998 0.0760391 -0.00915609)
(0.0118076 0.071656 -0.00731932)
(0.0107356 0.0623408 -0.00445432)
(0.00854818 0.048577 -0.00160937)
(0.00547498 0.0314622 0.000191343)
(0.00178287 0.0119516 0.000519161)
(2.28331e-05 0.00670001 0.00555875)
(0.00050109 0.0213768 0.0126481)
(0.00170127 0.0378096 0.0150971)
(0.00346082 0.0540479 0.0134672)
(0.00526637 0.0682618 0.00963199)
(0.00648909 0.0786365 0.00546035)
(0.00673904 0.0834475 0.001831)
(0.00558351 0.0843702 -0.000796254)
(0.00418277 0.0737277 -0.00970962)
(0.000442503 0.0211568 0.014586)
(-9.95515e-07 0.00670788 0.00620528)
(0.00176195 0.0374308 0.0178615)
(0.00380563 0.0532735 0.0165718)
(0.00590608 0.0669027 0.0128066)
(0.0073305 0.076781 0.00853112)
(0.00756477 0.0821198 0.00491069)
(0.00656501 0.0828219 0.0019988)
(0.0043503 0.0816537 -0.000515942)
(0.00145 0.0711868 -0.009697)
(0.00165241 0.0370684 0.0204631)
(0.00021238 0.0213508 0.0164557)
(-6.29159e-05 0.00695368 0.00711034)
(0.00405168 0.0520488 0.019093)
(0.00654494 0.064527 0.0152159)
(0.00825423 0.0733509 0.0108656)
(0.00872173 0.0781213 0.00716863)
(0.00787272 0.0792274 0.00435708)
(0.00591687 0.0773586 0.0019848)
(0.00304878 0.0758736 -0.00045046)
(-0.00112705 0.0668583 -0.00967634)
(0.00399441 0.049948 0.0212797)
(0.00111279 0.0365563 0.0228872)
(-0.000506555 0.021865 0.0191071)
(-0.000282808 0.00726924 0.00916019)
(0.00697642 0.0605963 0.016842)
(0.00895628 0.0676447 0.0121526)
(0.00965505 0.0711076 0.00832978)
(0.00913605 0.0715221 0.00551005)
(0.00756505 0.0697896 0.00345308)
(0.00509493 0.0664861 0.00158435)
(0.00199593 0.0657114 -0.000490423)
(-0.00320494 0.0593401 -0.00920196)
(0.00688624 0.0547786 0.0184597)
(0.0033732 0.0457585 0.023674)
(-0.000144605 0.034683 0.0265153)
(-0.00251243 0.0212191 0.0247003)
(-0.00101514 0.00700604 0.0138699)
(0.00894958 0.0593603 0.0127391)
(0.00970294 0.0609296 0.0082703)
(0.00944749 0.0600173 0.00532979)
(0.00844194 0.0576903 0.0034305)
(0.00664115 0.0545234 0.00213786)
(0.00408087 0.0504613 0.000924489)
(0.00127644 0.0505102 -0.000425686)
(-0.00437498 0.0475696 -0.00775259)
(0.00785038 0.0502258 0.0141572)
(0.00596931 0.0451244 0.023646)
(0.00230241 0.0372121 0.0293969)
(-0.00209624 0.0276342 0.0338225)
(-0.00636729 0.0163933 0.0333303)
(-0.00274018 0.00500327 0.0217421)
(0.00830404 0.0480467 0.00777073)
(0.00807463 0.0455497 0.00414583)
(0.00753237 0.0424943 0.00242267)
(0.00655764 0.0394557 0.00149162)
(0.00491073 0.0362514 0.000909844)
(0.00270159 0.0322544 0.000356095)
(0.000699105 0.0325589 -0.000238315)
(-0.00422113 0.0323807 -0.00540256)
(0.00584959 0.0380329 0.00867388)
(0.00594748 0.0356822 0.0272974)
(0.00455196 0.0287456 0.0339811)
(0.00114139 0.0214052 0.0372844)
(-0.00369001 0.0149458 0.0390832)
(-0.0100272 0.00825518 0.0386307)
(-0.00475436 0.00193611 0.0299609)
(0.00531746 0.0291856 0.00300056)
(0.0049716 0.0260331 0.00121681)
(0.00460098 0.023492 0.000653755)
(0.00389264 0.021355 0.000390708)
(0.0026981 0.0190801 0.000232139)
(0.00126306 0.0161367 7.94785e-05)
(0.000225204 0.0162355 -7.66294e-05)
(-0.00288656 0.0170147 -0.00286201)
(0.00223868 0.0167668 0.00484974)