/*--------------------------------*- C++ -*----------------------------------*\
  =========                 |
  \\      /  F ield         | OpenFOAM: The Open Source CFD Toolbox
   \\    /   O peration     | Website:  https://openfoam.org
    \\  /    A nd           | Version:  7
     \\/     M anipulation  |
\*---------------------------------------------------------------------------*/
FoamFile
{
    version     2.0;
    format      ascii;
    class       surfaceScalarField;
    location    "400";
    object      phi;
}
// * * * * * * * * * * * * * * * * * * * * * * * * * * * * * * * * * * * * * //

dimensions      [0 3 -1 0 0 0 0];

internalField   nonuniform List<scalar> 
127367
(
2.74007e-11
1.99439e-13
2.51198e-12
7.19407e-11
1.73545e-12
2.10573e-11
6.11975e-14
7.52442e-14
6.30129e-14
3.82509e-11
4.83176e-13
2.85936e-12
1.0235e-10
3.03469e-12
3.38893e-11
5.68358e-13
6.54993e-13
5.73325e-13
1.17405e-10
4.38291e-12
2.49091e-11
2.54314e-14
3.69772e-14
1.28483e-14
1.48912e-13
2.24734e-13
1.72563e-13
4.93595e-11
8.1025e-13
2.71275e-12
1.6649e-12
1.7634e-11
1.13163e-10
1.23494e-12
1.25649e-12
1.11162e-12
1.85246e-10
8.22433e-12
4.52135e-11
2.18251e-13
3.36839e-13
1.25358e-13
1.44185e-12
2.05341e-12
1.60992e-12
1.54267e-10
7.43337e-12
2.44237e-11
7.45573e-15
2.75023e-14
2.02731e-15
4.74187e-14
1.2422e-13
6.59646e-14
2.53843e-13
4.3133e-13
2.97668e-13
6.19429e-11
1.17677e-12
2.49817e-12
7.41901e-13
6.60009e-13
1.49795e-12
4.72358e-12
2.53957e-11
2.11842e-10
1.54257e-12
1.58983e-11
1.21029e-10
5.59299e-13
6.44483e-13
2.70979e-13
3.47593e-12
4.07618e-12
3.22571e-12
2.50913e-10
1.42735e-11
4.61491e-11
6.34548e-14
2.49575e-13
3.12795e-14
4.43219e-13
1.15898e-12
6.24028e-13
2.50208e-12
3.99239e-12
2.80271e-12
1.9347e-10
1.08516e-11
2.27047e-11
7.20829e-15
1.97251e-14
5.75854e-16
-7.55734e-16
9.56955e-14
3.13177e-14
6.18814e-14
2.61716e-13
1.73725e-13
3.64076e-13
6.98932e-13
4.11463e-13
7.61105e-11
1.56334e-12
2.18825e-12
3.77058e-13
1.71048e-13
7.53109e-13
2.44234e-12
1.94081e-12
4.47639e-12
6.99784e-13
6.29856e-13
1.7109e-12
8.33187e-12
2.66249e-11
2.91375e-10
4.45376e-12
2.35268e-11
2.32605e-10
3.23061e-12
3.21462e-11
1.32879e-10
1.20658e-13
4.8738e-13
9.99097e-14
1.20341e-12
2.30809e-12
1.2789e-12
6.28138e-12
8.02031e-12
5.69962e-12
3.15545e-10
2.10691e-11
4.3666e-11
5.94648e-14
1.81785e-13
1.55464e-14
-1.14706e-14
8.91502e-13
3.09488e-13
5.98267e-13
2.45709e-12
1.623e-12
3.61829e-12
6.5077e-12
3.89242e-12
2.37358e-10
1.4454e-11
1.99946e-11
4.90134e-15
1.50239e-14
-1.96452e-16
1.24174e-15
7.30276e-14
2.20133e-14
-1.8756e-14
2.06024e-13
1.05781e-13
8.43691e-14
4.62301e-13
3.26011e-13
4.50252e-13
1.01456e-12
5.10023e-13
9.10006e-11
1.94198e-12
1.83444e-12
2.89894e-13
7.33162e-14
1.34516e-13
1.38414e-12
7.79442e-13
1.65324e-12
3.58888e-13
1.66852e-13
9.27169e-13
4.84017e-12
3.46522e-12
8.24871e-12
2.33195e-12
1.86476e-12
5.36332e-12
1.46982e-12
1.35097e-12
2.12074e-12
1.23986e-11
2.55398e-11
3.67136e-10
7.90964e-12
2.50473e-11
3.23987e-10
9.47012e-12
4.86785e-11
2.67896e-10
7.11688e-12
6.631e-11
1.47098e-10
1.26015e-13
3.59169e-13
6.16704e-14
-6.74282e-14
1.79107e-12
6.72907e-13
1.68635e-12
4.95416e-12
3.257e-12
9.25588e-12
1.31471e-11
7.98403e-12
3.87012e-10
2.82308e-11
3.87729e-11
4.03796e-14
1.3992e-13
6.39305e-15
3.40403e-15
6.85033e-13
2.19874e-13
-1.83522e-13
1.93271e-12
9.98655e-13
8.30393e-13
4.35209e-12
3.03263e-12
4.49361e-12
9.47538e-12
4.82775e-12
2.8325e-10
1.79787e-11
1.68017e-11
3.4841e-15
1.20364e-14
-4.94097e-16
-9.93907e-16
5.9199e-14
1.46315e-14
-1.54319e-14
1.63754e-13
7.97298e-14
-3.60272e-14
3.73439e-13
2.30689e-13
1.15645e-13
7.25503e-13
4.99452e-13
4.94198e-13
1.35163e-12
6.06222e-13
1.05346e-10
2.28559e-12
1.46233e-12
2.14969e-13
4.79372e-14
1.53012e-13
1.08158e-12
4.24107e-13
-1.15649e-13
2.76713e-13
7.55039e-14
1.41197e-13
2.9961e-12
1.96126e-12
2.34863e-12
1.32963e-12
7.52375e-13
2.07006e-12
7.72312e-13
3.64571e-13
1.26013e-12
7.96336e-12
4.88333e-12
1.2273e-11
4.64422e-12
3.34572e-12
1.00332e-11
4.99645e-12
4.04157e-12
7.14643e-12
3.21971e-12
3.06823e-12
2.94973e-12
1.66865e-11
2.28227e-11
4.50406e-10
1.18114e-11
2.41913e-11
4.09049e-10
1.69357e-11
5.28798e-11
3.81303e-10
2.13052e-11
1.03992e-10
3.22661e-10
1.62076e-11
1.34723e-10
1.57186e-10
8.06934e-14
2.81717e-13
3.71422e-14
-1.45323e-14
1.38551e-12
4.85174e-13
-5.12371e-13
3.91881e-12
2.03712e-12
2.36273e-12
8.82589e-12
6.04591e-12
1.16038e-11
1.91931e-11
9.91155e-12
4.61102e-10
3.52338e-11
3.27219e-11
2.82827e-14
1.13371e-13
1.75507e-15
-1.58034e-14
5.57707e-13
1.48536e-13
-1.59667e-13
1.54304e-12
7.53808e-13
-3.52003e-13
3.51444e-12
2.15231e-12
1.14647e-12
6.83802e-12
4.6392e-12
4.93989e-12
1.26431e-11
5.71779e-12
3.27402e-10
2.11728e-11
1.34116e-11
2.02046e-15
1.04521e-14
-4.34538e-16
-1.58539e-15
5.04618e-14
9.83208e-15
-1.58654e-14
1.37488e-13
5.67704e-14
-3.48057e-14
3.0741e-13
1.8058e-13
-4.73482e-14
6.04945e-13
3.98618e-13
1.3999e-13
1.03429e-12
6.76833e-13
5.00322e-13
1.68248e-12
7.09058e-13
1.17461e-10
2.57159e-12
1.09586e-12
1.70683e-13
3.09455e-14
9.4039e-14
8.40356e-13
3.08218e-13
-3.35754e-14
2.06232e-13
5.0251e-14
1.73252e-13
2.38051e-12
1.23928e-12
-7.11938e-13
1.04044e-12
4.15419e-13
-1.66363e-13
5.94445e-13
1.7428e-13
1.44802e-13
5.35948e-12
3.62536e-12
3.30254e-12
2.88817e-12
1.88442e-12
2.97265e-12
2.88468e-12
1.63757e-12
2.90886e-12
1.77746e-12
8.47139e-13
1.85528e-12
1.16458e-11
6.06638e-12
1.54614e-11
7.6601e-12
4.72769e-12
1.50424e-11
1.00232e-11
7.2917e-12
1.36955e-11
1.13358e-11
9.37139e-12
1.08127e-11
7.32658e-12
7.26071e-12
4.57014e-12
2.08785e-11
1.93266e-11
5.36308e-10
1.59262e-11
2.16951e-11
5.01996e-10
2.53833e-11
5.14931e-11
4.83709e-10
3.85215e-11
1.16941e-10
4.75433e-10
5.0096e-11
2.24044e-10
3.92224e-10
3.61683e-11
2.56046e-10
1.55337e-10
5.62925e-14
2.31535e-13
2.21757e-14
-6.51492e-14
1.13748e-12
3.34527e-13
-4.40125e-13
3.14347e-12
1.541e-12
-9.57123e-13
7.15735e-12
4.3108e-12
3.25383e-12
1.3906e-11
9.22573e-12
1.27846e-11
2.56338e-11
1.16669e-11
5.32213e-10
4.15728e-11
2.61776e-11
1.63676e-14
9.82174e-14
8.08351e-16
-2.00116e-14
4.76757e-13
1.01137e-13
-1.62077e-13
1.29899e-12
5.38808e-13
-3.53272e-13
2.90259e-12
1.68416e-12
-4.62768e-13
5.70223e-12
3.70357e-12
1.39142e-12
9.7509e-12
6.28002e-12
4.99465e-12
1.57478e-11
6.64856e-12
3.6457e-10
2.38271e-11
1.00576e-11
-5.43133e-15
1.43505e-16
1.57407e-14
-3.69588e-15
4.68273e-14
6.89736e-15
-1.40856e-14
1.21249e-13
4.01604e-14
-3.43998e-14
2.65469e-13
1.33125e-13
-5.18334e-14
5.14574e-13
3.22807e-13
-5.59245e-14
8.93082e-13
5.95777e-13
1.40471e-13
1.36527e-12
8.53598e-13
4.77496e-13
1.9873e-12
8.1591e-13
1.2562e-10
2.78291e-12
7.34363e-13
1.41423e-13
1.98994e-14
6.56568e-14
6.9393e-13
2.14833e-13
-1.02604e-13
1.64543e-13
3.31184e-14
1.02615e-13
1.91569e-12
9.38543e-13
-6.05614e-13
8.10788e-13
3.02867e-13
-5.65262e-14
4.46594e-13
1.17812e-13
2.03307e-13
4.36085e-12
2.5921e-12
-1.3113e-12
2.29702e-12
1.19608e-12
-9.01431e-13
2.25693e-12
9.18898e-13
-2.83203e-13
1.36056e-12
4.39001e-13
1.22728e-13
8.46102e-12
5.52147e-12
4.54252e-12
5.17534e-12
3.47646e-12
4.19529e-12
6.28854e-12
4.08256e-12
4.26239e-12
6.71544e-12
3.82121e-12
4.55518e-12
4.35729e-12
2.07903e-12
2.7456e-12
1.55631e-11
7.11062e-12
1.70558e-11
1.12165e-11
5.87497e-12
1.90238e-11
1.65928e-11
1.03352e-11
2.07894e-11
2.30452e-11
1.70714e-11
2.14719e-11
2.70158e-11
2.30478e-11
1.81059e-11
1.71382e-11
1.69533e-11
6.64708e-12
2.46701e-11
1.5488e-11
6.18641e-10
1.9948e-11
1.84045e-11
5.97466e-10
3.4295e-11
4.63973e-11
5.9413e-10
5.80925e-11
1.1557e-10
6.10083e-10
9.21774e-11
2.65466e-10
6.09322e-10
1.17231e-10
4.61908e-10
4.45987e-10
7.4522e-11
4.49462e-10
1.37856e-10
3.14881e-14
2.01032e-13
1.53842e-14
-6.88174e-14
9.77173e-13
2.31291e-13
-4.52033e-13
2.66004e-12
1.10791e-12
-9.5941e-13
5.93355e-12
3.37096e-12
-1.25012e-12
1.16374e-11
7.36676e-12
3.93711e-12
1.98487e-11
1.24652e-11
1.28792e-11
3.19245e-11
1.34306e-11
5.91844e-10
4.68337e-11
1.96525e-11
-4.03326e-15
3.44919e-15
9.3371e-14
-3.40452e-14
4.3638e-13
7.1536e-14
-1.42481e-13
1.14629e-12
3.82243e-13
-3.479e-13
2.51155e-12
1.24337e-12
-5.25496e-13
4.86329e-12
2.99681e-12
-5.47811e-13
8.42291e-12
5.5235e-12
1.39259e-12
1.28658e-11
7.90998e-12
4.74888e-12
1.8601e-11
7.60339e-12
3.89458e-10
2.57848e-11
6.74353e-12
-3.60721e-14
5.88375e-15
7.71596e-14
-5.43634e-15
9.15258e-16
1.7118e-14
3.14446e-15
-1.66933e-14
1.16229e-13
2.86124e-14
-3.06904e-14
2.4008e-13
9.62448e-14
-5.2802e-14
4.55592e-13
2.4493e-13
-6.69527e-14
7.83654e-13
4.99223e-13
-7.33639e-14
1.22166e-12
8.12781e-13
1.07431e-13
1.70289e-12
1.0306e-12
4.29804e-13
2.25499e-12
9.14084e-13
1.28469e-10
2.90537e-12
3.62958e-13
1.23156e-13
1.39839e-14
3.57732e-14
5.98013e-13
1.49668e-13
-1.02665e-13
1.36888e-13
2.1715e-14
7.16013e-14
1.62702e-12
6.77228e-13
-6.25746e-13
6.71179e-13
2.12071e-13
-1.4194e-13
3.58022e-13
7.91496e-14
1.12049e-13
3.62474e-12
2.02571e-12
-1.31044e-12
1.85234e-12
9.06227e-13
-7.64273e-13
1.76638e-12
6.72172e-13
-1.20311e-13
1.03712e-12
3.02526e-13
2.24247e-13
7.10066e-12
4.40828e-12
-1.70591e-12
4.21461e-12
2.48849e-12
-1.64295e-12
5.00202e-12
2.60402e-12
-1.3e-12
5.24702e-12
2.19812e-12
-5.73856e-13
3.31767e-12
1.18748e-12
-2.5089e-14
1.20848e-11
7.44857e-12
5.48834e-12
8.17686e-12
5.28936e-12
5.76931e-12
1.12891e-11
7.51424e-12
6.06741e-12
1.47234e-11
9.46179e-12
6.94359e-12
1.67455e-11
9.50369e-12
7.40096e-12
1.10151e-11
5.28736e-12
3.58143e-12
1.93794e-11
8.12757e-12
1.71531e-11
1.49979e-11
6.87251e-12
2.10084e-11
2.43429e-11
1.28486e-11
2.64627e-11
3.84124e-11
2.4328e-11
3.3213e-11
5.60909e-11
4.27327e-11
3.78736e-11
6.57088e-11
5.70461e-11
2.95354e-11
3.93261e-11
3.55076e-11
6.33558e-12
2.78139e-11
1.16373e-11
6.87547e-10
2.35836e-11
1.47629e-11
6.88845e-10
4.30015e-11
3.94486e-11
7.06624e-10
7.8755e-11
1.05055e-10
7.5107e-10
1.40476e-10
2.69411e-10
8.02034e-10
2.21671e-10
5.85358e-10
7.46566e-10
2.53224e-10
8.62185e-10
4.37412e-10
1.35129e-10
7.34613e-10
1.02442e-10
2.57075e-15
1.44935e-14
1.79935e-13
-9.19819e-14
8.86157e-13
1.64338e-13
-3.92249e-13
2.35201e-12
7.89101e-13
-9.54259e-13
5.15329e-12
2.49455e-12
-1.42796e-12
9.95809e-12
5.95275e-12
-1.47822e-12
1.71991e-11
1.09468e-11
3.93842e-12
2.61799e-11
1.5664e-11
1.21384e-11
3.76765e-11
1.51984e-11
6.31527e-10
5.07083e-11
1.31842e-11
-9.90675e-14
5.74411e-14
4.45383e-13
-4.65162e-15
3.79641e-15
8.87905e-14
-1.52413e-13
1.08061e-12
2.72931e-13
-3.07401e-13
2.27055e-12
8.99961e-13
-5.34331e-13
4.31305e-12
2.27517e-12
-6.79424e-13
7.4077e-12
4.62457e-12
-7.25522e-13
1.15186e-11
7.52291e-12
1.05136e-12
1.60314e-11
9.53573e-12
4.24969e-12
2.10971e-11
8.47133e-12
3.97892e-10
2.69164e-11
3.335e-12
-9.80353e-14
2.22649e-14
1.97884e-13
-5.59018e-14
6.83936e-15
8.67207e-14
4.04174e-14
1.59896e-15
4.0233e-16
1.74957e-14
-2.37846e-15
1.86579e-16
2.85122e-15
1.06823e-16
-3.56785e-14
2.3507e-13
6.93046e-14
-4.90297e-14
4.2057e-13
1.80306e-13
-7.02924e-14
7.097e-13
3.89203e-13
-8.85727e-14
1.10394e-12
7.05558e-13
-1.14329e-13
1.58178e-12
1.04826e-12
3.85646e-14
2.04319e-12
1.20385e-12
3.55235e-13
2.47689e-12
9.87385e-13
1.25519e-10
2.92692e-12
-4.16028e-14
1.14437e-14
4.65439e-15
1.0963e-13
5.40651e-13
1.06407e-13
-1.27041e-13
1.19407e-13
1.5298e-14
3.79597e-14
1.44046e-12
4.83474e-13
-5.39486e-13
5.79338e-13
1.48212e-13
-1.37315e-13
2.99345e-13
5.27557e-14
7.75311e-14
3.15635e-12
1.50133e-12
-1.30996e-12
1.57572e-12
6.54983e-13
-7.92035e-13
1.46613e-12
4.73001e-13
-2.35524e-13
8.37679e-13
2.08368e-13
1.0314e-13
6.0903e-12
3.55823e-12
-1.95009e-12
3.50882e-12
1.94401e-12
-1.64241e-12
4.04555e-12
1.97382e-12
-1.10943e-12
4.13979e-12
1.6161e-12
-3.26625e-13
2.58419e-12
8.37944e-13
1.19818e-13
1.04975e-11
6.53255e-12
-2.01519e-12
6.86789e-12
4.22215e-12
-2.13058e-12
9.19643e-12
5.38511e-12
-2.33134e-12
1.17067e-11
6.08089e-12
-2.16595e-12
1.30629e-11
5.64945e-12
-1.35315e-12
8.449e-12
3.22848e-12
-6.8743e-13
1.59348e-11
9.3424e-12
5.48922e-12
1.16812e-11
7.12927e-12
6.96512e-12
1.78508e-11
1.14183e-11
8.35733e-12
2.65112e-11
1.73472e-11
1.00832e-11
3.70486e-11
2.33376e-11
1.21521e-11
4.3365e-11
2.41972e-11
1.08351e-11
2.72048e-11
1.2789e-11
2.91396e-12
2.28558e-11
9.12697e-12
1.60971e-11
1.86778e-11
7.82835e-12
2.11031e-11
3.25796e-11
1.4995e-11
2.92839e-11
5.65586e-11
3.02713e-11
4.2716e-11
9.45771e-11
6.15059e-11
6.03388e-11
1.39946e-10
1.09332e-10
6.73139e-11
1.54624e-10
1.2756e-10
3.6083e-11
8.07381e-11
6.05105e-11
2.15916e-13
3.01266e-11
7.80995e-12
7.33269e-10
2.65956e-11
1.10976e-11
7.6519e-10
5.0865e-11
3.1682e-11
8.13965e-10
9.89269e-11
8.97028e-11
8.92543e-10
1.91583e-10
2.48857e-10
9.93729e-10
3.43952e-10
6.20946e-10
1.02908e-09
4.94621e-10
1.16464e-09
7.90911e-10
4.73624e-10
1.43764e-09
3.43605e-10
2.07832e-10
1.09281e-09
5.44531e-11
-1.57547e-13
1.25181e-13
8.3395e-13
-1.77983e-15
7.75827e-15
1.69305e-13
-3.89207e-13
2.18899e-12
5.64147e-13
-8.35697e-13
4.66201e-12
1.80868e-12
-1.46318e-12
8.85779e-12
4.52372e-12
-1.85284e-12
1.51726e-11
9.15269e-12
-1.96761e-12
2.35026e-11
1.48662e-11
2.98555e-12
3.25746e-11
1.88317e-11
1.07091e-11
4.26745e-11
1.67728e-11
6.44538e-10
5.29444e-11
6.52448e-12
-3.01638e-13
2.0695e-13
1.13471e-12
-7.3741e-14
3.04053e-14
4.36614e-13
1.46578e-15
3.08789e-15
8.58361e-14
-3.24824e-13
2.18392e-12
6.48707e-13
-4.90038e-13
3.97813e-12
1.67591e-12
-7.12473e-13
6.71901e-12
3.6061e-12
-9.00301e-13
1.04295e-11
6.52544e-12
-1.14469e-12
1.48982e-11
9.68655e-12
3.44816e-13
1.92058e-11
1.11208e-11
3.48343e-12
2.31549e-11
9.1048e-12
3.88432e-10
2.71115e-11
-3.80247e-13
-2.03413e-13
5.31643e-14
4.07585e-13
-1.60832e-13
2.29907e-14
2.24506e-13
1.1806e-13
-2.90549e-14
7.09708e-15
9.21532e-14
1.69282e-14
1.30698e-15
1.46582e-14
2.4639e-14
4.16466e-15
1.27042e-16
1.6887e-14
-3.68238e-15
4.53133e-17
3.02322e-15
-2.59565e-15
1.87637e-16
2.37114e-15
-2.45183e-15
-5.97812e-14
4.18284e-13
1.31376e-13
-6.81417e-14
6.66534e-13
2.91625e-13
-9.26184e-14
1.02058e-12
5.65215e-13
-1.31189e-13
1.47207e-12
9.46514e-13
-1.91799e-13
1.97992e-12
1.30336e-12
-6.2586e-14
2.38572e-12
1.35763e-12
2.65779e-13
2.63197e-12
1.01661e-12
1.17293e-10
2.83622e-12
-5.04228e-13
7.92057e-14
-1.85874e-13
5.01218e-13
1.20709e-14
5.65637e-15
1.06336e-13
5.17749e-15
-9.94168e-16
1.03668e-13
1.33364e-12
3.45667e-13
-5.21644e-13
5.23149e-13
1.05386e-13
-1.60936e-13
2.61692e-13
3.7224e-14
3.83944e-14
2.85663e-12
1.08967e-12
-1.14217e-12
1.39597e-12
4.68082e-13
-6.79598e-13
1.2681e-12
3.31694e-13
-2.18215e-13
7.06279e-13
1.41639e-13
6.73054e-14
5.42873e-12
2.70572e-12
-2.00599e-12
3.05898e-12
1.44176e-12
-1.64688e-12
3.44746e-12
1.42923e-12
-1.15014e-12
3.45144e-12
1.14583e-12
-4.84606e-13
2.11293e-12
5.92558e-13
-1.81299e-14
9.28103e-12
5.45606e-12
-2.53417e-12
5.8987e-12
3.40597e-12
-2.44283e-12
7.67346e-12
4.20459e-12
-2.35016e-12
9.52072e-12
4.61179e-12
-1.9191e-12
1.04465e-11
4.18346e-12
-1.05573e-12
6.75324e-12
2.35005e-12
-5.34398e-13
1.4336e-11
8.85143e-12
-2.68768e-12
1.01554e-11
6.24783e-12
-2.51497e-12
1.50011e-11
9.11112e-12
-3.00685e-12
2.16011e-11
1.24515e-11
-3.79175e-12
2.94479e-11
1.51466e-11
-4.06236e-12
3.39763e-11
1.4826e-11
-3.56187e-12
2.14249e-11
7.78838e-12
-2.69576e-12
1.98057e-11
1.12072e-11
4.1709e-12
1.53991e-11
8.93289e-12
6.96432e-12
2.55046e-11
1.53726e-11
1.00859e-11
4.19759e-11
2.62984e-11
1.39889e-11
6.70462e-11
4.25265e-11
1.84253e-11
9.72679e-11
5.89969e-11
2.00305e-11
1.09676e-10
5.80112e-11
1.05614e-11
6.03419e-11
2.52583e-11
-1.94787e-12
2.58613e-11
1.00011e-11
1.41002e-11
2.2024e-11
8.75736e-12
1.97397e-11
4.05857e-11
1.70102e-11
2.93674e-11
7.58335e-11
3.51888e-11
4.746e-11
1.40137e-10
7.6709e-11
7.89591e-11
2.39734e-10
1.60506e-10
1.13383e-10
3.36947e-10
2.57122e-10
9.54268e-11
3.22237e-10
2.28181e-10
1.97999e-11
1.35957e-10
8.13904e-11
-9.29902e-12
3.14591e-11
3.86634e-12
7.48025e-10
2.88092e-11
7.44964e-12
8.1572e-10
5.73721e-11
2.38302e-11
9.03348e-10
1.17115e-10
7.22117e-11
1.02654e-09
2.41427e-10
2.14237e-10
1.18084e-09
4.74252e-10
5.89658e-10
1.29677e-09
7.86656e-10
1.30746e-09
1.1577e-09
9.48759e-10
2.00877e-09
6.57033e-10
7.39975e-10
2.13403e-09
1.8819e-10
2.67847e-10
1.42072e-09
7.24139e-12
-5.13476e-13
4.1728e-13
2.10873e-12
-8.96605e-14
5.43506e-14
8.03278e-13
2.716e-15
7.94924e-15
1.60106e-13
-8.23228e-13
4.42047e-12
1.3041e-12
-1.32938e-12
8.17059e-12
3.33524e-12
-1.95376e-12
1.37983e-11
7.13941e-12
-2.46538e-12
2.13414e-11
1.2879e-11
-3.12874e-12
3.03378e-11
1.90871e-11
1.02098e-12
3.89326e-11
2.18974e-11
8.57017e-12
4.67589e-11
1.78717e-11
6.28689e-10
5.33259e-11
-7.49826e-13
-6.31723e-13
4.87891e-13
2.33129e-12
-2.21303e-13
1.02405e-13
1.12318e-12
-5.79302e-14
3.3429e-14
4.35149e-13
6.45245e-15
2.35148e-15
8.11971e-14
-5.39822e-13
3.8851e-12
1.22178e-12
-6.79952e-13
6.30368e-12
2.70306e-12
-9.40381e-13
9.65621e-12
5.22726e-12
-1.33472e-12
1.38886e-11
8.73869e-12
-1.93546e-12
1.86135e-11
1.20226e-11
-6.8831e-13
2.23807e-11
1.25207e-11
2.57632e-12
2.45786e-11
9.32732e-12
3.62857e-10
2.62655e-11
-4.62625e-12
-3.63658e-13
1.00906e-13
7.34203e-13
-3.41105e-13
5.37516e-14
4.65077e-13
2.52854e-13
-9.62668e-14
2.6289e-14
2.41734e-13
5.98475e-14
4.35267e-15
3.80963e-14
7.69183e-14
-2.02587e-14
7.44272e-15
9.2756e-14
1.23408e-14
1.27614e-15
1.62986e-14
1.40571e-14
1.23623e-15
1.24318e-14
1.11588e-14
6.57545e-15
-1.86661e-16
1.5577e-14
-5.07808e-15
-1.79945e-17
2.99266e-15
-3.63369e-15
1.41201e-17
2.62307e-15
-2.86157e-15
1.74793e-16
1.68204e-15
-4.3085e-15
-8.84507e-14
6.71193e-13
2.15172e-13
-9.16001e-14
9.72528e-13
4.31293e-13
-1.32943e-13
1.38864e-12
7.81619e-13
-2.10678e-13
1.90393e-12
1.23323e-12
-3.13109e-13
2.43222e-12
1.57e-12
-1.81579e-13
2.71173e-12
1.45948e-12
1.91714e-13
2.68768e-12
9.73494e-13
1.05158e-10
2.62738e-12
-1.02961e-12
2.52688e-13
-6.15531e-13
1.26222e-12
7.77441e-14
-2.1174e-13
4.83345e-13
3.26903e-14
-9.90502e-14
4.83095e-13
2.84853e-14
5.30234e-15
2.33565e-13
5.2114e-15
-5.96707e-16
1.00728e-13
5.5454e-15
3.05589e-15
9.7783e-14
2.69198e-12
7.85475e-13
-1.09837e-12
1.28958e-12
3.34635e-13
-6.44491e-13
1.14388e-12
2.35857e-13
-2.35339e-13
6.20077e-13
1.00051e-13
2.45553e-14
5.00757e-12
1.99595e-12
-1.81449e-12
2.76909e-12
1.04692e-12
-1.43112e-12
3.0569e-12
1.02259e-12
-9.79921e-13
2.99633e-12
8.07597e-13
-4.29042e-13
1.80375e-12
4.11267e-13
-3.47581e-14
8.45589e-12
4.25674e-12
-2.67961e-12
5.26296e-12
2.59065e-12
-2.51911e-12
6.69839e-12
3.1207e-12
-2.36325e-12
8.13749e-12
3.34925e-12
-1.97029e-12
8.77585e-12
2.99617e-12
-1.21751e-12
5.62922e-12
1.6935e-12
-5.87561e-13
1.30445e-11
7.66074e-12
-3.37853e-12
8.98954e-12
5.21523e-12
-3.17757e-12
1.29078e-11
7.34418e-12
-3.4891e-12
1.80995e-11
9.7111e-12
-3.94773e-12
2.41806e-11
1.1492e-11
-3.96032e-12
2.77017e-11
1.10752e-11
-3.5062e-12
1.76347e-11
5.82567e-12
-2.56976e-12
1.84774e-11
1.13391e-11
-4.288e-12
1.38648e-11
8.45555e-12
-3.36115e-12
2.21878e-11
1.34584e-11
-3.5454e-12
3.52995e-11
2.09637e-11
-4.84268e-12
5.4663e-11
3.05584e-11
-6.82018e-12
7.76301e-11
3.85898e-11
-8.18827e-12
8.76692e-11
3.57023e-11
-9.46901e-12
4.95652e-11
1.4705e-11
-6.62387e-12
2.36299e-11
1.30015e-11
1.4582e-12
1.91284e-11
1.07036e-11
5.29584e-12
3.36097e-11
1.92366e-11
1.00763e-11
5.99818e-11
3.53275e-11
1.69086e-11
1.06386e-10
6.41977e-11
2.60687e-11
1.7747e-10
1.06667e-10
3.30204e-11
2.49923e-10
1.41068e-10
2.39973e-11
2.472e-10
1.14749e-10
-3.89213e-12
1.07949e-10
3.63748e-11
-1.03142e-11
2.83012e-11
1.05864e-11
1.11428e-11
2.49095e-11
9.56145e-12
1.71959e-11
4.78509e-11
1.89401e-11
2.73311e-11
9.45315e-11
3.96299e-11
4.751e-11
1.88501e-10
8.86329e-11
8.84623e-11
3.58513e-10
2.01595e-10
1.53609e-10
5.8718e-10
3.91772e-10
1.7821e-10
7.13138e-10
4.82584e-10
7.66467e-11
5.46137e-10
3.12865e-10
-1.78356e-11
1.82204e-10
9.22251e-11
-1.58798e-11
3.16838e-11
-4.47981e-13
7.29361e-10
3.00826e-11
3.68875e-12
8.31804e-10
6.21469e-11
1.60029e-11
9.62213e-10
1.32131e-10
5.43778e-11
1.13736e-09
2.86234e-10
1.73247e-10
1.35484e-09
6.01355e-10
5.15639e-10
1.54632e-09
1.10336e-09
1.29432e-09
1.50786e-09
1.54244e-09
2.35209e-09
1.01487e-09
1.50344e-09
2.9965e-09
3.72074e-10
9.59709e-10
2.75394e-09
2.55194e-11
2.90332e-10
1.55817e-09
-3.55673e-11
-1.07788e-12
9.61842e-13
4.32206e-12
-2.83876e-13
1.76032e-13
2.04963e-12
-8.56e-14
6.04756e-14
7.78421e-13
8.38316e-15
7.75482e-15
1.5042e-13
-1.35742e-12
7.86128e-12
2.43102e-12
-1.84412e-12
1.29431e-11
5.35454e-12
-2.58357e-12
1.98075e-11
1.03166e-11
-3.66636e-12
2.83526e-11
1.7196e-11
-5.31086e-12
3.77793e-11
2.36159e-11
-1.83512e-12
4.52247e-11
2.45785e-11
6.08752e-12
4.95414e-11
1.8145e-11
5.87098e-10
5.16464e-11
-9.05356e-12
-1.10683e-12
9.21818e-13
4.19435e-12
-4.68104e-13
2.38827e-13
2.32187e-12
-1.89631e-13
1.17296e-13
1.13268e-12
-4.47721e-14
3.57319e-14
4.26282e-13
1.1037e-14
1.44258e-15
7.52932e-14
-7.90135e-13
6.2321e-12
1.99505e-12
-9.14023e-13
9.19191e-12
3.9898e-12
-1.35021e-12
1.31191e-11
7.21404e-12
-2.14319e-12
1.79227e-11
1.13621e-11
-3.16805e-12
2.28041e-11
1.44543e-11
-1.89851e-12
2.53779e-11
1.34384e-11
1.83503e-12
2.50674e-11
8.88221e-12
3.25482e-10
2.43228e-11
-9.43304e-12
-5.82883e-13
1.66273e-13
1.18871e-12
-6.19238e-13
1.01846e-13
8.4136e-13
4.63989e-13
-2.10892e-13
6.31217e-14
5.04764e-13
1.34373e-13
1.01692e-14
7.90225e-14
1.68015e-13
-7.63672e-14
2.91728e-14
2.46877e-13
4.94953e-14
4.87501e-15
4.29711e-14
5.1374e-14
4.09211e-15
3.24394e-14
4.16231e-14
-1.29595e-14
7.67636e-15
8.98643e-14
7.98898e-15
1.32099e-15
1.6867e-14
1.04335e-14
1.14479e-15
1.45009e-14
1.08575e-14
1.08116e-15
9.24544e-15
1.00716e-15
7.92018e-15
-4.21654e-16
1.38747e-14
-5.79545e-15
-8.93775e-17
2.74189e-15
-4.7378e-15
-5.63138e-17
2.63631e-15
-3.5905e-15
-2.77655e-17
1.98117e-15
-3.13272e-15
1.47332e-16
8.9156e-16
-5.34717e-15
-1.2454e-13
9.89731e-13
3.22515e-13
-1.29521e-13
1.34052e-12
6.08958e-13
-2.09389e-13
1.83713e-12
1.05786e-12
-3.44037e-13
2.43645e-12
1.57308e-12
-4.75741e-13
2.94193e-12
1.81556e-12
-2.96932e-13
2.97907e-12
1.46505e-12
1.60781e-13
2.60854e-12
8.31607e-13
9.08292e-11
2.30788e-12
-1.58001e-12
5.73959e-13
-1.2908e-12
2.58364e-12
2.43421e-13
-7.06671e-13
1.21504e-12
1.02707e-13
-3.18502e-13
1.22683e-12
1.72408e-13
-2.66748e-13
1.05497e-12
3.15444e-14
-1.07863e-13
4.65825e-13
3.63847e-14
-9.86041e-14
4.6526e-13
7.39904e-14
-4.84946e-15
5.56245e-13
1.18428e-14
-4.68634e-16
2.21595e-13
5.64961e-15
3.08303e-15
9.5052e-14
5.73731e-15
8.5642e-15
9.18651e-14
4.78649e-12
1.45413e-12
-1.80499e-12
2.6025e-12
7.5451e-13
-1.35165e-12
2.81741e-12
7.30922e-13
-9.00054e-13
2.70133e-12
5.74074e-13
-4.14343e-13
1.59588e-12
2.90598e-13
-5.81533e-14
7.93056e-12
3.19353e-12
-2.51635e-12
4.8546e-12
1.91151e-12
-2.2707e-12
6.0655e-12
2.26723e-12
-2.04284e-12
7.22816e-12
2.40075e-12
-1.66371e-12
7.66719e-12
2.12584e-12
-1.03492e-12
4.8847e-12
1.19635e-12
-4.86542e-13
1.21277e-11
6.13612e-12
-3.54604e-12
8.19731e-12
4.06911e-12
-3.36582e-12
1.15292e-11
5.58772e-12
-3.6074e-12
1.58351e-11
7.21643e-12
-3.96601e-12
2.07761e-11
8.38141e-12
-3.95098e-12
2.35734e-11
8.01611e-12
-3.41175e-12
1.50811e-11
4.22805e-12
-2.26191e-12
1.72993e-11
1.02047e-11
-5.03212e-12
1.26298e-11
7.31414e-12
-4.24236e-12
1.96721e-11
1.12255e-11
-4.54325e-12
3.04779e-11
1.68725e-11
-5.82888e-12
4.61408e-11
2.37767e-11
-7.71017e-12
6.46917e-11
2.92543e-11
-9.20092e-12
7.32762e-11
2.67811e-11
-1.00685e-11
4.22135e-11
1.0882e-11
-6.09985e-12
2.29533e-11
1.39948e-11
-7.29006e-12
1.78568e-11
1.0819e-11
-5.37986e-12
3.02823e-11
1.81864e-11
-4.76168e-12
5.22354e-11
3.08645e-11
-5.69974e-12
8.95986e-11
5.10297e-11
-8.52688e-12
1.45348e-10
7.64385e-11
-1.25475e-11
2.03079e-10
9.18699e-11
-1.75116e-11
2.05309e-10
6.91361e-11
-2.20085e-11
9.24216e-11
2.05993e-11
-1.16952e-11
2.73842e-11
1.45581e-11
-2.47464e-12
2.28004e-11
1.24022e-11
1.86875e-12
4.17161e-11
2.3016e-11
7.65123e-12
7.89852e-11
4.40966e-11
1.68535e-11
1.52038e-10
8.58674e-11
3.17021e-11
2.82615e-10
1.59885e-10
4.87487e-11
4.60829e-10
2.5366e-10
4.67789e-11
5.69695e-10
2.80627e-10
1.56303e-12
4.45566e-10
1.6653e-10
-3.3475e-11
1.48712e-10
3.94485e-11
-1.62708e-11
2.99436e-11
1.06746e-11
7.73962e-12
2.72436e-11
1.00866e-11
1.34568e-11
5.40956e-11
2.05866e-11
2.36007e-11
1.11436e-10
4.37567e-11
4.38988e-11
2.35265e-10
9.86212e-11
8.84913e-11
4.84573e-10
2.3135e-10
1.7549e-10
8.87818e-10
5.01992e-10
2.58928e-10
1.25998e-09
7.6984e-10
1.73417e-10
1.21759e-09
6.78485e-10
-3.12374e-12
7.33599e-10
3.52726e-10
-5.22253e-11
1.97731e-10
9.54749e-11
-1.87534e-11
3.0678e-11
-5.36781e-12
6.81007e-10
3.02944e-11
-4.28131e-13
8.10795e-10
6.48867e-11
7.9262e-12
9.80451e-10
1.43115e-10
3.65432e-11
1.20962e-09
3.2306e-10
1.30752e-10
1.49668e-09
7.15115e-10
4.20663e-10
1.76898e-09
1.41428e-09
1.16338e-09
1.82038e-09
2.20144e-09
2.42604e-09
1.37602e-09
2.47757e-09
3.5546e-09
5.9602e-10
1.96175e-09
3.83989e-09
5.10381e-11
1.04185e-09
3.00929e-09
-1.23911e-10
2.65011e-10
1.41996e-09
-7.91721e-11
-1.85525e-12
1.80159e-12
7.76995e-12
-6.00561e-13
4.04536e-13
4.22602e-12
-2.85753e-13
1.99134e-13
2.00709e-12
-7.57235e-14
6.57316e-14
7.51396e-13
1.43406e-14
7.26102e-15
1.39856e-13
-1.96993e-12
1.26038e-11
3.9502e-12
-2.48004e-12
1.88509e-11
7.87715e-12
-3.71357e-12
2.68427e-11
1.41899e-11
-5.88804e-12
3.64444e-11
2.22758e-11
-8.68899e-12
4.60699e-11
2.82916e-11
-5.16103e-12
5.10856e-11
2.62968e-11
4.09429e-12
5.04299e-11
1.71023e-11
5.26875e-10
4.77919e-11
-1.83971e-11
-1.73103e-12
1.51558e-12
6.78649e-12
-8.3466e-13
4.51713e-13
4.19689e-12
-4.08203e-13
2.77257e-13
2.35922e-12
-1.63141e-13
1.30485e-13
1.1247e-12
-3.368e-14
3.75882e-14
4.10857e-13
1.45018e-14
7.10769e-16
6.80012e-14
-1.10327e-12
9.18167e-12
2.98404e-12
-1.29584e-12
1.26541e-11
5.62125e-12
-2.12372e-12
1.73123e-11
9.73891e-12
-3.49408e-12
2.28599e-11
1.44564e-11
-4.81334e-12
2.74874e-11
1.66825e-11
-3.06497e-12
2.78039e-11
1.34699e-11
1.53296e-12
2.4296e-11
7.53696e-12
2.81511e-10
2.13511e-11
-1.44361e-11
-8.60044e-13
2.51219e-13
1.76483e-12
-1.0201e-12
1.68596e-13
1.36606e-12
7.76003e-13
-3.87122e-13
1.21003e-13
9.1837e-13
2.52233e-13
1.92739e-14
1.43041e-13
3.11844e-13
-1.7168e-13
7.12179e-14
5.20174e-13
1.14226e-13
1.18054e-14
8.98751e-14
1.1659e-13
9.55868e-15
6.73771e-14
9.51716e-14
-6.04905e-14
3.18511e-14
2.4326e-13
3.99334e-14
5.3955e-15
4.51311e-14
4.32609e-14
4.50594e-15
3.84131e-14
4.20392e-14
3.56552e-15
2.43186e-14
1.48203e-14
-1.03899e-14
8.00648e-15
8.51364e-14
6.69044e-15
1.3426e-15
1.637e-14
7.05412e-15
1.16898e-15
1.52925e-14
8.41681e-15
9.23986e-16
1.15698e-14
7.5816e-15
8.62166e-16
5.63525e-15
-5.34265e-15
9.1173e-15
-6.38773e-16
1.18519e-14
-6.45468e-15
-1.41171e-16
2.4179e-15
-5.33015e-15
-1.35317e-16
2.40176e-15
-4.3678e-15
-1.05783e-16
2.02913e-15
-3.53247e-15
-7.54448e-17
1.17182e-15
-3.33727e-15
1.08713e-16
1.40606e-16
-5.59624e-15
-1.78201e-13
1.37856e-12
4.62688e-13
-1.97956e-13
1.79743e-12
8.46651e-13
-3.49168e-13
2.42339e-12
1.42014e-12
-5.43078e-13
3.10774e-12
1.95039e-12
-6.70559e-13
3.4866e-12
1.97859e-12
-3.86124e-13
3.11864e-12
1.3411e-12
1.68465e-13
2.37467e-12
5.96413e-13
7.59844e-11
1.90264e-12
-2.09944e-12
1.06846e-12
-2.20606e-12
4.64282e-12
5.49152e-13
-1.47965e-12
2.48562e-12
2.33255e-13
-6.73043e-13
2.52557e-12
5.28901e-13
-8.92517e-13
2.64677e-12
9.77129e-14
-3.50028e-13
1.1804e-12
1.155e-13
-3.30892e-13
1.19285e-12
4.14474e-13
-3.95519e-13
2.48963e-12
6.88788e-14
-1.26342e-13
1.01641e-12
3.51057e-14
-1.10288e-13
4.48054e-13
3.98088e-14
-9.17138e-14
4.4718e-13
2.08716e-13
-6.31461e-14
1.44547e-12
2.9696e-14
-3.86276e-15
5.29946e-13
1.29588e-14
2.28989e-15
2.09431e-13
5.94495e-15
8.33519e-15
8.93368e-14
5.7791e-15
1.48364e-14
8.55907e-14
7.67116e-12
2.35447e-12
-2.61087e-12
4.62704e-12
1.39221e-12
-2.21512e-12
5.68447e-12
1.63349e-12
-1.87317e-12
6.64529e-12
1.71513e-12
-1.45822e-12
6.92467e-12
1.50963e-12
-8.90828e-13
4.37746e-12
8.43683e-13
-3.94565e-13
1.15395e-11
4.68596e-12
-3.38433e-12
7.68724e-12
3.05315e-12
-3.14791e-12
1.06348e-11
4.12393e-12
-3.23303e-12
1.43493e-11
5.24697e-12
-3.40326e-12
1.85172e-11
6.02329e-12
-3.30222e-12
2.08064e-11
5.72701e-12
-2.79853e-12
1.33601e-11
3.01436e-12
-1.77987e-12
1.64039e-11
8.41769e-12
-5.09968e-12
1.17514e-11
5.85808e-12
-4.45663e-12
1.79561e-11
8.75896e-12
-4.82099e-12
2.72738e-11
1.28425e-11
-6.0293e-12
4.05289e-11
1.76981e-11
-7.67068e-12
5.61061e-11
2.14371e-11
-8.78631e-12
6.35863e-11
1.94905e-11
-8.98414e-12
3.7166e-11
7.82366e-12
-5.03796e-12
2.21713e-11
1.3181e-11
-8.08226e-12
1.67342e-11
9.73068e-12
-6.32605e-12
2.76241e-11
1.57201e-11
-6.07859e-12
4.64503e-11
2.57055e-11
-7.59101e-12
7.78306e-11
4.09447e-11
-1.12288e-11
1.24134e-10
5.9162e-11
-1.64029e-11
1.72728e-10
6.91599e-11
-2.12282e-11
1.76996e-10
5.08181e-11
-2.1692e-11
8.12951e-11
1.492e-11
-9.89312e-12
2.78933e-11
1.6719e-11
-1.19222e-11
2.21552e-11
1.33356e-11
-9.16141e-12
3.89658e-11
2.32341e-11
-7.67717e-12
7.12471e-11
4.15873e-11
-7.74641e-12
1.32678e-10
7.4678e-11
-9.98785e-12
2.39285e-10
1.26065e-10
-1.48232e-11
3.83971e-10
1.79456e-10
-2.32758e-11
4.80371e-10
1.79891e-10
-3.89429e-11
3.8533e-10
9.9148e-11
-4.03201e-11
1.30348e-10
2.15349e-11
-1.48653e-11
3.08452e-11
1.5537e-11
-7.04141e-12
2.63902e-11
1.38696e-11
-3.08867e-12
4.9665e-11
2.66272e-11
2.6883e-12
9.78892e-11
5.2612e-11
1.2683e-11
1.99923e-10
1.06654e-10
3.14086e-11
4.03944e-10
2.12119e-10
6.00982e-11
7.37473e-10
3.76937e-10
7.58173e-11
1.05867e-09
5.06349e-10
2.2362e-11
1.0315e-09
4.11106e-10
-5.69265e-11
6.15529e-10
1.82034e-10
-5.79897e-11
1.61349e-10
3.80955e-11
-1.79828e-11
3.04372e-11
9.98136e-12
5.02832e-12
2.88042e-11
1.01345e-11
9.18198e-12
5.91239e-11
2.16244e-11
1.81819e-11
1.25882e-10
4.71712e-11
3.74193e-11
2.77271e-10
1.07299e-10
8.10105e-11
6.05838e-10
2.52859e-10
1.7626e-10
1.20707e-09
5.75948e-10
3.08745e-10
1.92453e-09
1.02236e-09
2.83326e-10
2.16732e-09
1.11666e-09
4.5488e-11
1.64075e-09
7.64373e-10
-9.37668e-11
7.97552e-10
3.616e-10
-7.40497e-11
1.75954e-10
8.99827e-11
-1.9679e-11
2.83721e-11
-1.08774e-11
6.11272e-10
2.93277e-11
-5.12024e-12
7.56945e-10
6.53318e-11
-9.19899e-13
9.55122e-10
1.49383e-10
1.81086e-11
1.23081e-09
3.49834e-10
8.79871e-11
1.58722e-09
8.07885e-10
3.18878e-10
1.94451e-09
1.6919e-09
9.64833e-10
2.0798e-09
2.85726e-09
2.2571e-09
1.69745e-09
3.57793e-09
3.73666e-09
8.34351e-10