/*--------------------------------*- C++ -*----------------------------------*\
  =========                 |
  \\      /  F ield         | OpenFOAM: The Open Source CFD Toolbox
   \\    /   O peration     | Website:  https://openfoam.org
    \\  /    A nd           | Version:  7
     \\/     M anipulation  |
\*---------------------------------------------------------------------------*/
FoamFile
{
    version     2.0;
    format      ascii;
    class       volVectorField;
    location    "400";
    object      U;
}
// * * * * * * * * * * * * * * * * * * * * * * * * * * * * * * * * * * * * * //

dimensions      [0 1 -1 0 0 0 0];

internalField   nonuniform List<vector> 
43929
(
(0.000263516 0.000595911 -0.000250247)
(0.000953364 0.0022738 -0.000984604)
(3.98816e-06 0.000303283 -3.98506e-07)
(0.000414389 0.00107514 -0.000272047)
(0.00147403 0.00401473 -0.00164239)
(1.5625e-05 0.00117967 -6.20607e-06)
(0.00158059 0.00429877 -0.00112837)
(2.27965e-09 8.50893e-05 -1.71874e-07)
(2.31256e-05 0.000621018 -8.13791e-07)
(0.00038393 0.00135016 -0.000270346)
(0.00167937 0.00498766 -0.00197475)
(2.86393e-05 0.00215131 -2.32775e-05)
(0.00275664 0.00804791 -0.00216548)
(5.10651e-07 0.000347291 -3.14747e-06)
(9.54848e-05 0.00252997 -1.10654e-05)
(0.00153788 0.00546659 -0.00113906)
(-1.04195e-06 7.6953e-05 -2.16275e-07)
(8.47344e-06 0.00023013 -2.03882e-07)
(4.79125e-05 0.000864428 -9.6569e-07)
(0.000363301 0.0015036 -0.000269584)
(3.66574e-05 0.00273147 -3.555e-05)
(0.003376 0.0103406 -0.00279666)
(0.00176591 0.00548483 -0.00214003)
(2.33994e-06 0.000678243 -1.32053e-05)
(0.000188753 0.00488916 -4.67769e-05)
(0.00287499 0.0104344 -0.00224777)
(-2.85573e-06 0.000310408 -1.60701e-06)
(3.66993e-05 0.000961287 -4.47048e-06)
(0.000200863 0.00356547 -1.44465e-05)
(0.00147331 0.00612099 -0.00113507)
(-1.40295e-06 5.0445e-05 -2.41909e-07)
(3.61816e-06 0.000196472 -4.13716e-08)
(3.17709e-05 0.000384704 -1.70484e-07)
(7.21735e-05 0.00104287 -1.04094e-06)
(0.000323213 0.00157907 -0.000269215)
(4.01273e-06 0.000900867 -2.42282e-05)
(0.00025187 0.00641864 -7.9354e-05)
(4.10424e-05 0.00303616 -4.18312e-05)
(0.00368094 0.0135812 -0.00298109)
(0.00368111 0.0115565 -0.00312764)
(0.0018515 0.00608011 -0.00232893)
(-2.32335e-06 0.000596493 -5.06384e-06)
(7.69243e-05 0.00193255 -2.11325e-05)
(0.000406049 0.00702002 -6.41988e-05)
(0.00281683 0.0117882 -0.0022429)
(-4.14094e-06 0.00020686 -2.05011e-06)
(1.84998e-05 0.000815999 -3.97188e-08)
(0.000133473 0.00161646 -4.47763e-06)
(0.000304872 0.00432585 -1.63033e-05)
(0.00131935 0.00644525 -0.00113309)
(-1.63761e-06 3.86977e-05 -2.69745e-07)
(2.99819e-06 0.000140769 -3.86133e-08)
(2.43533e-05 0.000321009 8.85369e-08)
(7.05049e-05 0.000541136 -1.84542e-07)
(9.22958e-05 0.00116156 -1.01235e-06)
(0.000276978 0.00160607 -0.000269041)
(-7.55988e-07 0.000784449 -6.81081e-06)
(0.000106067 0.00260925 -4.05462e-05)
(4.94737e-06 0.00102389 -3.12138e-05)
(0.000549804 0.00933093 -0.000113087)
(0.000286677 0.0072474 -9.85638e-05)
(4.67026e-05 0.00341023 -4.98219e-05)
(0.003667 0.0154415 -0.00298363)
(0.00410459 0.0152764 -0.00338129)
(0.00403301 0.0130539 -0.00353258)
(0.00194003 0.00702198 -0.0025868)
(-4.27641e-06 0.000406912 -6.93629e-06)
(4.61986e-05 0.00162627 1.02744e-06)
(0.000269882 0.00327889 -2.25834e-05)
(0.000623447 0.00859286 -7.41824e-05)
(0.00255196 0.0124684 -0.00223659)
(-4.89816e-06 0.000160017 -2.05984e-06)
(1.65295e-05 0.000589205 -3.03366e-07)
(0.000104609 0.00134377 1.98427e-06)
(0.000293655 0.00227933 -4.86383e-06)
(0.000391159 0.00483228 -1.62927e-05)
(0.00113394 0.00656424 -0.00113127)
(-1.87573e-06 2.9564e-05 -2.80123e-07)
(2.20019e-06 0.000113004 -2.99066e-08)
(2.53404e-05 0.000242832 1.32763e-07)
(6.55854e-05 0.000451569 1.55623e-07)
(0.000117991 0.00068425 -2.17903e-07)
(0.000110661 0.00123114 -9.17555e-07)
(0.000225908 0.00160746 -0.000268968)
(-2.94772e-06 0.000543213 -1.05881e-05)
(6.93686e-05 0.00218328 3.63346e-06)
(3.53988e-07 0.000887378 -7.39254e-06)
(0.000365064 0.00445327 -4.46731e-05)
(0.00012255 0.00298783 -5.3188e-05)
(6.11625e-06 0.00118131 -4.07582e-05)
(0.000850906 0.0114921 -0.000133127)
(0.00063026 0.0105997 -0.0001429)
(0.000331025 0.00828913 -0.00012482)
(5.70404e-05 0.00403205 -6.56392e-05)
(0.00335217 0.0163868 -0.00297578)
(0.00412415 0.0174252 -0.00339087)
(0.00462166 0.0173909 -0.00388452)
(0.0045454 0.0155327 -0.00419694)
(0.00197677 0.00833885 -0.0028358)
(-5.28882e-06 0.000318534 -6.63224e-06)
(4.39729e-05 0.00118873 -7.82371e-08)
(0.000218147 0.00271 9.84246e-06)
(0.00058677 0.0046414 -2.4993e-05)
(0.000803802 0.00964334 -7.50857e-05)
(0.002205 0.0127278 -0.00222862)
(-5.70634e-06 0.000124053 -2.07839e-06)
(1.38062e-05 0.00047474 1.6508e-07)
(0.000109392 0.00102179 2.45018e-06)
(0.000274835 0.00189723 3.10465e-06)
(0.000490368 0.00288487 -5.4643e-06)
(0.000468117 0.00512975 -1.49085e-05)
(0.000926384 0.00657413 -0.00112997)
(-1.99018e-06 2.46544e-05 -2.62504e-07)
(1.57831e-06 9.26727e-05 -5.85775e-09)
(2.49313e-05 0.000200794 1.73094e-07)
(7.17627e-05 0.000357414 2.40367e-07)
(0.00012636 0.000581497 1.71282e-07)
(0.000167787 0.000802743 -2.28532e-07)
(0.000129954 0.00126968 -8.05936e-07)
(0.000175122 0.00160036 -0.000268932)
(-3.94483e-06 0.000428475 -9.49743e-06)
(6.77874e-05 0.00160948 1.30295e-06)
(-1.96001e-06 0.000618964 -1.24519e-05)
(0.000300615 0.00366661 1.93515e-05)
(8.30767e-05 0.00249322 5.68098e-06)
(2.01812e-06 0.00101818 -7.79966e-06)
(0.000788046 0.00632068 -4.98412e-05)
(0.00041823 0.00511393 -5.93069e-05)
(0.000143976 0.00347656 -7.10626e-05)
(8.12356e-06 0.00146286 -5.85971e-05)
(0.00110075 0.0129393 -0.000136023)
(0.000979301 0.0130948 -0.000169683)
(0.000734024 0.0122113 -0.000184428)
(0.000409209 0.0100866 -0.000178402)
(7.47004e-05 0.00498372 -9.79586e-05)
(0.00290856 0.0167566 -0.00296161)
(0.00378788 0.0185234 -0.00338294)
(0.00469318 0.0199164 -0.00390725)
(0.00545941 0.0209709 -0.00474612)
(0.00513802 0.0192291 -0.00514518)
(0.00193005 0.00986756 -0.00292444)
(-6.46303e-06 0.000251782 -6.61332e-06)
(4.02304e-05 0.000963491 2.52649e-06)
(0.000229614 0.00207787 1.2218e-05)
(0.000553955 0.00384828 1.49363e-05)
(0.00097631 0.00588303 -2.80325e-05)
(0.000958995 0.0102625 -6.9004e-05)
(0.00180669 0.0127611 -0.00222241)
(-6.00564e-06 0.000104154 -1.75758e-06)
(1.1672e-05 0.000391552 5.45023e-07)
(0.000108507 0.000846964 3.52173e-06)
(0.000300824 0.00150748 4.39771e-06)
(0.000525863 0.00244763 3.33792e-06)
(0.00069663 0.00338468 -5.55539e-06)
(0.000546768 0.00529437 -1.30368e-05)
(0.000718711 0.00654695 -0.00112887)
(-1.46795e-06 2.21521e-05 9.8292e-07)
(1.42423e-06 8.16156e-05 1.07214e-07)
(2.46445e-05 0.000171038 2.28763e-07)
(7.40975e-05 0.00030345 3.15967e-07)
(0.000143284 0.000479755 2.86805e-07)
(0.000201126 0.000702015 1.7058e-07)
(0.000217131 0.000898071 -1.96953e-07)
(0.000150855 0.00129648 -7.02608e-07)
(0.000125795 0.00159649 -0.000268897)
(-5.22175e-06 0.00034265 -9.47122e-06)
(6.41593e-05 0.00130997 6.82708e-06)
(-2.90308e-06 0.000490007 -1.07492e-05)
(0.000317595 0.00282797 2.36038e-05)
(8.20279e-05 0.0018457 2.52509e-06)
(-4.62958e-07 0.000716356 -1.459e-05)
(0.000747946 0.0052275 2.85516e-05)
(0.00034736 0.00420287 2.5673e-05)
(0.000101458 0.0028917 8.90617e-06)
(5.64669e-06 0.00124959 -7.69606e-06)
(0.00130782 0.0080195 -5.57619e-05)
(0.000899816 0.00726792 -6.64099e-05)
(0.000486712 0.00597056 -8.03448e-05)
(0.000183131 0.00436247 -0.000106991)
(1.17555e-05 0.00194983 -8.81153e-05)
(0.00131056 0.0137946 -0.0001253)
(0.00126897 0.0147679 -0.000174129)
(0.0011461 0.015142 -0.000221095)
(0.000921077 0.0150435 -0.000271142)
(0.000538032 0.0129787 -0.000288998)
(9.83803e-05 0.00627422 -0.000153182)
(0.00238865 0.0168147 -0.00294997)
(0.00329387 0.0189584 -0.00336501)
(0.00433622 0.0212166 -0.00390008)
(0.00565106 0.0241875 -0.00480905)
(0.00664171 0.0265172 -0.00608354)
(0.00558126 0.0238425 -0.0061221)
(0.00185541 0.011221 -0.00273772)
(-6.76846e-06 0.000213561 -5.41496e-06)
(3.72099e-05 0.000801363 4.29713e-06)
(0.000230264 0.00172925 1.77731e-05)
(0.000606496 0.00307703 2.14341e-05)
(0.00104878 0.00497926 1.5954e-05)
(0.00138428 0.00690247 -2.84042e-05)
(0.00111037 0.0106048 -6.01635e-05)
(0.00140369 0.0127146 -0.00221699)
(-4.7678e-06 9.24004e-05 2.28943e-06)
(1.14223e-05 0.000344734 2.0605e-06)
(0.000107901 0.000723899 4.49039e-06)
(0.000311392 0.00128234 6.12995e-06)
(0.0005959 0.00202571 5.31506e-06)
(0.00083471 0.00295706 3.30236e-06)
(0.000900505 0.0037846 -4.80577e-06)
(0.000630621 0.00540758 -1.11856e-05)
(0.000516501 0.0065319 -0.00112796)
(3.1243e-06 7.94019e-05 4.83892e-06)
(-1.02605e-06 3.88762e-05 4.5994e-06)
(2.48909e-05 0.000155275 4.60133e-07)
(7.55945e-05 0.000265953 4.09669e-07)
(0.000152766 0.000417814 3.96192e-07)
(0.000236174 0.000602222 3.02945e-07)
(0.000284475 0.000812096 1.93024e-07)
(0.000266466 0.000982879 -1.24436e-07)
(0.000171594 0.00132792 -6.10382e-07)
(7.63496e-05 0.00160243 -0.000268843)
(-5.49673e-06 0.000292437 -7.47505e-06)
(6.10876e-05 0.00109556 1.00242e-05)
(-4.21661e-06 0.000393993 -1.07246e-05)
(0.000320553 0.0023603 3.47507e-05)
(7.8633e-05 0.00150532 1.00616e-05)
(-1.28786e-06 0.000569558 -1.19716e-05)
(0.000818851 0.00419869 4.07916e-05)
(0.000367596 0.00325108 3.11109e-05)
(0.000101266 0.0021516 4.69303e-06)
(2.82615e-06 0.000892122 -1.73018e-05)
(0.00140606 0.00677756 3.02659e-05)
(0.000856139 0.0060038 3.74144e-05)
(0.000408232 0.00489634 3.48357e-05)
(0.000136548 0.00360924 1.65797e-05)
(1.3053e-05 0.00164414 -4.27982e-06)
(0.00185134 0.00940895 -5.63298e-05)
(0.00149139 0.00922582 -7.42505e-05)
(0.00104315 0.00849882 -9.04238e-05)
(0.000610062 0.00753504 -0.000124313)
(0.000252223 0.00592088 -0.000174328)
(1.93623e-05 0.00274709 -0.000125136)
(0.00150821 0.0142672 -0.000108883)
(0.00150936 0.015758 -0.000160582)
(0.00148818 0.0171108 -0.000227983)
(0.00145104 0.0187766 -0.000329595)
(0.00124244 0.0197387 -0.000458089)
(0.000718672 0.0170984 -0.000495079)
(0.0001153 0.00772233 -0.000196262)
(0.00185791 0.0167597 -0.00293958)
(0.00270835 0.0190325 -0.00334988)
(0.00378126 0.0217392 -0.00387706)
(0.00527952 0.0258666 -0.00480615)
(0.00711055 0.0309586 -0.00627391)
(0.00791604 0.0338478 -0.00774779)
(0.00572232 0.0281966 -0.00648074)
(0.00181017 0.0119949 -0.00221707)
(-5.26465e-06 0.000188881 3.66046e-07)
(3.74022e-05 0.0007066 9.57147e-06)
(0.000230741 0.0014854 2.22594e-05)
(0.000630112 0.00262575 3.02319e-05)
(0.00118698 0.00414203 2.59437e-05)
(0.00165707 0.00602211 1.57831e-05)
(0.00178563 0.00771084 -2.45363e-05)
(0.00126706 0.0108361 -5.11522e-05)
(0.00100953 0.012688 -0.00221247)
(1.65778e-05 0.00032604 1.7245e-05)
(-2.48115e-06 9.11619e-05 5.86574e-06)
(0.000109414 0.000655763 7.61641e-06)
(0.000318267 0.00112658 7.82218e-06)
(0.000635968 0.00176719 7.66332e-06)
(0.00097936 0.0025434 5.71834e-06)
(0.00117856 0.00342028 3.74512e-06)
(0.00110354 0.00413795 -3.25009e-06)
(0.000713064 0.00553835 -9.46135e-06)
(0.000313639 0.00655656 -0.00112715)
(2.84562e-05 0.000156299 1.00361e-05)
(1.42733e-05 0.000148302 3.46255e-05)
(-3.2206e-06 3.82397e-05 -1.50934e-06)
(-4.07727e-07 2.02475e-05 1.13599e-06)
(7.71925e-05 0.00024687 7.94618e-07)
(0.000158957 0.000375004 5.32324e-07)
(0.000259084 0.00053753 4.3745e-07)
(0.000345888 0.000722681 3.39093e-07)
(0.00037462 0.000923112 2.67268e-07)
(0.000315818 0.00107425 -1.40853e-08)
(0.000189041 0.00137458 -5.20574e-07)
(2.44147e-05 0.00162024 -0.000268761)
(-4.06107e-06 0.000258823 -1.1412e-06)
(6.16677e-05 0.000967352 1.84485e-05)
(-4.47393e-06 0.000337229 -8.25113e-06)
(0.000322593 0.00203421 4.29467e-05)
(7.56462e-05 0.00126229 1.41485e-05)
(-2.63456e-06 0.000460852 -1.19222e-05)
(0.000852726 0.00359114 5.81142e-05)
(0.000372109 0.00271737 4.60079e-05)
(9.83332e-05 0.00175921 1.51739e-05)
(2.34057e-06 0.000714483 -1.28132e-05)
(0.0015897 0.00565874 4.93696e-05)
(0.000937235 0.00483304 5.33795e-05)
(0.000432829 0.00380107 4.21064e-05)
(0.000138419 0.00270968 1.11782e-05)
(9.72079e-06 0.00120142 -1.63603e-05)
(0.00221407 0.00820285 2.98891e-05)
(0.00160391 0.00779181 3.95172e-05)
(0.000995328 0.00701097 5.01156e-05)
(0.000519756 0.00615752 5.44927e-05)
(0.000201207 0.00486032 3.65375e-05)
(2.52072e-05 0.00228355 1.45391e-05)
(0.00238395 0.0105034 -4.8639e-05)
(0.0021094 0.0108241 -7.49247e-05)
(0.00172624 0.0107946 -0.000101117)
(0.00129955 0.0107555 -0.000141619)
(0.000823223 0.0103191 -0.000213968)
(0.000364083 0.0085112 -0.000276689)
(3.17157e-05 0.00391873 -0.000140041)
(0.00170789 0.0145824 -9.18021e-05)
(0.00173178 0.0163049 -0.000139334)
(0.00176807 0.0182778 -0.000210509)
(0.00189138 0.0212938 -0.000342204)
(0.00198961 0.0249099 -0.000568536)
(0.00173133 0.0267111 -0.000840984)
(0.000888863 0.0218716 -0.000742709)
(0.000112096 0.0088705 -0.000117523)
(0.00133698 0.0167271 -0.00293082)
(0.00210782 0.018974 -0.00333622)
(0.00311389 0.0218361 -0.003857)
(0.00462833 0.0265587 -0.00477358)
(0.00678038 0.0333389 -0.00629181)
(0.00894338 0.0402723 -0.00829065)
(0.00875839 0.0412783 -0.00890746)
(0.00568615 0.0308849 -0.00564726)
(0.00179287 0.0121253 -0.00139587)
(4.44256e-05 0.00065555 3.10867e-05)
(-2.79062e-06 0.000173162 2.71099e-06)
(0.000234577 0.00134388 3.30814e-05)
(0.000645673 0.00231479 3.80887e-05)
(0.00126866 0.00362357 3.77586e-05)
(0.00194138 0.00520216 2.80608e-05)
(0.00233245 0.00696321 1.80712e-05)
(0.00218255 0.00841678 -1.66191e-05)
(0.00141839 0.0110964 -4.26234e-05)
(0.000613493 0.0127371 -0.00220843)
(0.000120608 0.000639329 3.82801e-05)
(2.8026e-05 0.000339928 4.56808e-05)
(-4.52705e-06 8.62589e-05 -7.56941e-07)
(0.000325491 0.00104263 1.2999e-05)
(0.000662313 0.00158914 1.01637e-05)
(0.00107478 0.00227391 8.51909e-06)
(0.00143194 0.00305054 6.50992e-06)
(0.00154959 0.00388442 5.23336e-06)
(0.00130585 0.00451667 -9.7813e-07)
(0.000781533 0.00573123 -7.71979e-06)
(0.000100383 0.00662962 -0.00112647)
(8.47967e-05 0.000253469 1.65434e-05)
(7.88956e-05 0.000298023 7.72372e-05)
(9.7575e-06 0.00015276 1.3142e-05)
(9.05376e-06 7.77017e-05 1.96469e-05)
(-4.08606e-06 3.86892e-05 -2.66964e-06)
(-2.30501e-06 2.1e-05 -1.82402e-06)
(-1.32613e-07 1.31763e-05 -9.44743e-07)
(0.000164238 0.00035434 1.09806e-06)
(0.000274532 0.000492472 6.14125e-07)
(0.000389857 0.000660432 4.93641e-07)
(0.000472365 0.000852072 4.43615e-07)
(0.000472446 0.00105503 4.19096e-07)
(0.000362924 0.00118845 1.36122e-07)
(0.00020019 0.00143942 -4.33588e-07)
(-3.40592e-05 0.00164724 -0.000268678)
(6.88882e-05 0.000890952 4.17387e-05)
(-3.11762e-06 0.000298667 -1.70256e-06)
(-1.98959e-06 0.000236231 1.11977e-06)
(0.000328094 0.0018397 6.01499e-05)
(7.64372e-05 0.0011154 2.43874e-05)
(-2.87147e-06 0.000395781 -8.81057e-06)
(0.000875131 0.00317308 7.25587e-05)
(0.00037519 0.00234573 5.65359e-05)
(9.55638e-05 0.00147987 2.05398e-05)
(9.62823e-07 0.000584096 -1.25081e-05)
(0.00170071 0.00496054 7.24132e-05)
(0.00097709 0.00413845 7.6357e-05)
(0.000439611 0.00318267 6.24583e-05)
(0.000136768 0.00222537 2.78922e-05)
(9.9847e-06 0.000973361 -8.14606e-06)
(0.00259094 0.00710827 5.35685e-05)
(0.00181241 0.00651755 6.45788e-05)
(0.00108946 0.0056593 7.15858e-05)
(0.000552699 0.00481072 6.67967e-05)
(0.000208052 0.00370487 3.39745e-05)
(2.2022e-05 0.0017255 7.70963e-06)
(0.00310899 0.00948189 3.43695e-05)
(0.00252129 0.00943359 3.899e-05)
(0.00185699 0.00910989 5.2718e-05)
(0.0012455 0.00885331 7.70302e-05)
(0.000716487 0.00839056 9.76093e-05)
(0.00030639 0.00692974 9.29026e-05)
(3.75334e-05 0.00323834 8.29804e-05)
(0.00290782 0.011451 -3.30958e-05)
(0.00271374 0.0120788 -6.46819e-05)
(0.00243893 0.0126643 -0.000101959)
(0.00214456 0.0136749 -0.0001589)
(0.00173845 0.0147974 -0.0002507)
(0.00116073 0.0150151 -0.000374181)
(0.00050807 0.012346 -0.000357748)
(4.1561e-05 0.005264 -4.63346e-05)
(0.00189774 0.0149308 -7.54489e-05)
(0.00195356 0.0166675 -0.000117025)
(0.00202131 0.0189223 -0.000182351)
(0.002243 0.0227905 -0.00031645)
(0.00261284 0.0284246 -0.000596415)
(0.00285632 0.0342831 -0.00108728)
(0.00227246 0.0351506 -0.0014153)
(0.000932377 0.025752 -0.000686444)
(9.43535e-05 0.00932305 0.000130213)
(0.000812897 0.016793 -0.00292296)
(0.00151726 0.0189386 -0.00332467)
(0.00242524 0.0217743 -0.00383862)
(0.00382262 0.0267047 -0.00474309)
(0.00600518 0.0343625 -0.0062436)
(0.00883703 0.0438849 -0.00840274)
(0.01054 0.0503048 -0.0101088)
(0.00899149 0.0462838 -0.00831163)
(0.00560969 0.0315746 -0.00368747)
(0.0017873 0.0119424 -0.000509411)
(0.000250171 0.00127946 7.66295e-05)
(5.41136e-05 0.000625679 5.14185e-05)
(-4.1397e-06 0.000162646 -1.54845e-06)
(0.000660822 0.00213697 5.60004e-05)
(0.0013228 0.00326725 4.93642e-05)
(0.00213173 0.0046634 4.20963e-05)
(0.00283015 0.00623348 3.21336e-05)
(0.00305803 0.00789593 2.56093e-05)
(0.00257529 0.00916674 -5.14461e-06)
(0.00154086 0.0114765 -3.39421e-05)
(0.000196589 0.0128797 -0.00220509)
(0.000349798 0.00103562 6.34502e-05)
(0.000157731 0.000679726 0.000102704)
(2.47768e-05 0.00033216 2.48451e-05)
(-5.82469e-06 8.30365e-05 -3.44163e-06)
(0.000684839 0.00149653 1.77276e-05)
(0.00113944 0.00208678 1.17894e-05)
(0.00161414 0.00279223 9.68137e-06)
(0.00195253 0.00359201 8.62125e-06)
(0.00195102 0.00443262 8.21508e-06)
(0.00149816 0.00498914 2.00908e-06)
(0.0008236 0.00599875 -6.00945e-06)
(-0.000139958 0.00673993 -0.00112621)
(0.000179721 0.000368724 2.42045e-05)
(0.000223459 0.000489041 0.000130419)
(7.84532e-05 0.000311137 3.48427e-05)
(4.83709e-05 0.000156475 4.62334e-05)
(7.221e-06 0.00016012 8.28868e-06)
(4.94235e-06 8.57448e-05 8.72071e-06)
(6.93005e-06 5.11163e-05 1.13226e-05)
(-4.83009e-06 3.60337e-05 -3.58603e-06)
(-2.91981e-06 2.22273e-05 -2.42338e-06)
(-1.93364e-06 1.41109e-05 -2.02234e-06)
(4.37736e-08 7.42701e-06 -3.00417e-06)
(0.000287239 0.00047212 1.37424e-06)
(0.000420591 0.000616089 7.09333e-07)
(0.000547343 0.000797511 6.31554e-07)
(0.000621259 0.00101404 6.65461e-07)
(0.000577891 0.00123075 6.75415e-07)
(0.000401414 0.00133052 3.23654e-07)
(0.000200621 0.00151557 -3.72609e-07)
(-0.000101698 0.00167423 -0.000268633)
(0.000344586 0.00173433 0.000107191)
(8.35836e-05 0.00102447 4.83293e-05)
(7.69312e-05 0.00084023 5.95419e-05)
(-1.65315e-06 0.000350917 -2.05415e-06)
(-1.33412e-06 0.00027279 5.74014e-07)
(-2.95077e-06 0.000222439 -2.16269e-06)
(0.000895593 0.00292573 0.00010097)
(0.000381604 0.00212123 7.73901e-05)
(9.66101e-05 0.00130892 3.31475e-05)
(7.41175e-07 0.000504412 -8.21524e-06)
(0.00177457 0.0044806 9.37993e-05)
(0.00100348 0.00366074 9.49607e-05)
(0.000444197 0.00275273 7.62963e-05)
(0.00013469 0.00188219 3.61461e-05)
(8.61077e-06 0.000808086 -6.47797e-06)
(0.00284594 0.00638449 8.081e-05)
(0.00193983 0.00571922 9.5027e-05)
(0.00113726 0.00485281 0.000102769)
(0.00056434 0.0040409 9.88304e-05)
(0.000209578 0.00306593 6.38395e-05)
(2.32513e-05 0.00142178 2.39375e-05)
(0.00376846 0.00851111 6.15873e-05)
(0.00294867 0.00818766 7.01556e-05)
(0.00209691 0.00763724 8.65267e-05)
(0.00136274 0.00718167 0.000111478)
(0.000764997 0.0066283 0.000127091)
(0.000323931 0.00541079 0.00011665)
(3.6629e-05 0.00255401 0.000108893)
(0.00406703 0.0107393 4.90528e-05)
(0.00353597 0.0109027 4.49239e-05)
(0.00291295 0.0110338 5.19654e-05)
(0.00230734 0.011528 8.05581e-05)
(0.00167568 0.0121471 0.000134498)
(0.00103063 0.012158 0.000191598)
(0.000430761 0.0100601 0.000250697)
(4.09174e-05 0.00441997 0.000241924)
(0.00342329 0.0124508 -1.0716e-05)
(0.00330645 0.0131603 -4.40815e-05)
(0.00313397 0.0141261 -8.79965e-05)
(0.00302366 0.0160422 -0.000160282)
(0.00285536 0.0188461 -0.000284442)
(0.00242697 0.02168 -0.000464866)
(0.00159692 0.0220483 -0.000565166)
(0.000610184 0.0167385 -0.000188285)
(4.02088e-05 0.0062099 0.000240064)
(0.00204785 0.0154356 -5.86778e-05)
(0.00216257 0.0170644 -9.55603e-05)
(0.0022695 0.0193462 -0.000152491)
(0.00254824 0.0236167 -0.00027325)
(0.00309164 0.0305274 -0.000552897)
(0.00380979 0.0395177 -0.00116787)
(0.0039331 0.0460769 -0.0019865)
(0.00251862 0.0422722 -0.00160884)
(0.000832777 0.0274173 -1.95635e-05)
(7.92434e-05 0.00923784 0.000363635)
(0.000260652 0.0169817 -0.00291654)
(0.000922741 0.0190138 -0.00331428)
(0.0017464 0.0217358 -0.00382302)
(0.00298146 0.0266414 -0.00471457)
(0.00498801 0.0346185 -0.0061906)
(0.00798183 0.0455457 -0.00834375)
(0.0109544 0.0557723 -0.010525)
(0.0112741 0.0576545 -0.0100446)
(0.00889245 0.0479135 -0.00565898)
(0.0055424 0.031208 -0.00137049)
(0.00178652 0.0118247 0.000266883)
(0.000695261 0.00206957 0.00012792)
(0.000275921 0.00124167 0.000123799)
(5.23373e-05 0.000602159 4.05312e-05)
(-5.40777e-06 0.000153745 -5.1198e-06)
(0.00136781 0.00306737 7.54927e-05)
(0.0022615 0.00428957 5.72429e-05)
(0.00319063 0.00572046 4.79927e-05)
(0.00384831 0.00732342 4.27314e-05)
(0.00383878 0.00898617 4.05123e-05)
(0.00294582 0.0100992 9.79616e-06)
(0.00161006 0.012002 -2.54308e-05)
(-0.000274017 0.0130936 -0.00220378)
(0.000735624 0.00150606 9.16823e-05)
(0.000444819 0.00111371 0.0001724)
(0.000160193 0.000671576 6.28206e-05)
(2.11309e-05 0.000330064 1.57359e-05)
(-6.9803e-06 7.7588e-05 -5.31204e-06)
(0.0011927 0.00199357 2.19127e-05)
(0.00174199 0.0026088 1.36719e-05)
(0.00226226 0.00336701 1.24447e-05)
(0.00256332 0.00426563 1.29372e-05)
(0.0023821 0.00515961 1.31361e-05)
(0.00165424 0.00557606 5.63538e-06)
(0.000821017 0.00631237 -4.74945e-06)
(-0.000417448 0.00684893 -0.00112666)
(0.000315754 0.000496517 3.26823e-05)
(0.000469954 0.00071729 0.000193359)
(0.000233913 0.000514624 6.13645e-05)
(0.000136798 0.000256956 7.9475e-05)
(7.68917e-05 0.000330422 2.50681e-05)
(4.64585e-05 0.000175483 2.44576e-05)
(3.60116e-05 0.0001032 2.92601e-05)
(4.7944e-06 0.000156331 4.67544e-06)
(3.17885e-06 9.40822e-05 5.76581e-06)
(3.03827e-06 5.91001e-05 6.97949e-06)
(4.92364e-06 2.96114e-05 2.97341e-06)
(-5.18089e-06 3.27241e-05 -3.79817e-06)
(-3.44738e-06 2.06047e-05 -2.93653e-06)
(-2.45831e-06 1.55338e-05 -2.4003e-06)
(-1.58363e-06 8.16709e-06 -2.23507e-06)
(1.19284e-07 3.28765e-06 -4.21237e-06)
(0.000445821 0.000597486 1.67498e-06)
(0.000601614 0.000756927 8.97564e-07)
(0.000743721 0.000975059 9.33704e-07)
(0.000799227 0.00124268 1.0719e-06)
(0.000684591 0.00146807 1.06423e-06)
(0.000419937 0.00149433 5.39094e-07)
(0.000183954 0.00158593 -3.71575e-07)
(-0.000177324 0.00168715 -0.000268665)
(0.000932812 0.00280299 0.000178879)
(0.000398247 0.00199185 0.000125666)
(0.000364831 0.00166019 0.000148506)
(0.000103498 0.00119902 5.77375e-05)
(9.06305e-05 0.000963727 6.52219e-05)
(7.57048e-05 0.000807324 5.23626e-05)
(1.61353e-06 0.000448559 -1.25523e-06)
(-2.80985e-07 0.000321273 1.57661e-07)
(-2.10909e-06 0.000257318 -2.32438e-06)
(-4.0482e-06 0.000209805 -5.70149e-06)
(0.00183425 0.00419969 0.000135165)
(0.00102683 0.00337369 0.000129357)
(0.000451754 0.00248922 0.000101883)
(0.000136107 0.00166787 5.30447e-05)
(8.29045e-06 0.000703926 -2.19064e-07)
(0.00302037 0.00588153 0.000108714)
(0.00202475 0.00517028 0.000122598)
(0.00116893 0.00429835 0.000127262)
(0.000572101 0.00350685 0.000119773)
(0.00020934 0.00261616 7.92265e-05)
(2.19628e-05 0.00120493 3.0541e-05)
(0.00424859 0.00782529 9.22768e-05)
(0.00323938 0.00736112 0.000106077)
(0.0022455 0.00671017 0.000127706)
(0.00142556 0.00617397 0.000160323)
(0.000786875 0.00559905 0.000184418)
(0.00033153 0.00453367 0.000174304)
(3.82822e-05 0.00215273 0.000144769)
(0.0051129 0.00998238 8.21535e-05)
(0.00428366 0.00979972 8.07923e-05)
(0.00340406 0.009595 9.41e-05)
(0.00260182 0.00970375 0.000134381)
(0.00183127 0.00993876 0.000204321)
(0.0011049 0.00978096 0.000283503)
(0.00046263 0.00812498 0.000377053)
(4.11919e-05 0.00365797 0.000335936)
(0.00509347 0.0121977 7.78653e-05)
(0.00462019 0.0123411 6.43261e-05)
(0.00407882 0.0127494 6.0037e-05)
(0.00360543 0.0139719 7.93529e-05)
(0.00306928 0.0158726 0.000139373)
(0.00234748 0.0177832 0.000249003)
(0.00142145 0.0179609 0.000393929)
(0.000501494 0.0139636 0.00061748)
(3.56279e-05 0.00535475 0.000504291)
(0.00390671 0.0136909 1.82136e-05)
(0.00388793 0.0142975 -1.44986e-05)
(0.0038131 0.015379 -6.00216e-05)
(0.00387645 0.0178793 -0.000138202)
(0.00400979 0.022105 -0.000287725)
(0.00395847 0.0276846 -0.000541191)
(0.00331996 0.0320881 -0.000788586)
(0.00192335 0.0300977 -0.000457122)
(0.000585852 0.0197944 0.000547248)
(3.18622e-05 0.00648728 0.000542201)
(0.00212597 0.016132 -4.2214e-05)
(0.00232561 0.0176374 -7.34778e-05)
(0.00250065 0.0198051 -0.000123611)
(0.00283733 0.024153 -0.000226781)
(0.00347695 0.0316881 -0.000474975)
(0.00450701 0.0426897 -0.0010954)
(0.00541261 0.053877 -0.00225604)
(0.00459099 0.0564535 -0.00259324)
(0.00231869 0.0455594 -0.000647762)
(0.000712464 0.0273313 0.000799516)
(7.49593e-05 0.00908218 0.000468076)
(-0.000363435 0.0172632 -0.002914)
(0.000295953 0.0192277 -0.00330584)
(0.00106241 0.021823 -0.00380896)
(0.0021484 0.0265991 -0.0046901)
(0.00390119 0.0345665 -0.00613917)
(0.00670429 0.0460519 -0.00824573)
(0.0102334 0.0585352 -0.0105292)
(0.0122464 0.0651149 -0.0109164)
(0.0112576 0.0605054 -0.00716544)
(0.00872443 0.0475604 -0.00215029)
(0.00551606 0.0309154 0.000719467)
(0.00178801 0.0119004 0.00100997)
(0.00144238 0.00300842 0.000180919)
(0.000757942 0.00202968 0.000208368)
(0.0002792 0.00120671 0.00010469)
(4.87025e-05 0.000583964 3.017e-05)
(-6.6703e-06 0.000143706 -7.93599e-06)
(0.00236638 0.00408461 9.20565e-05)
(0.00344483 0.0053561 6.64431e-05)
(0.00445782 0.00688121 6.17817e-05)
(0.00503546 0.00866488 6.41273e-05)
(0.00467148 0.0104207 6.48106e-05)
(0.0032428 0.0112546 2.77645e-05)
(0.00159019 0.0126163 -1.91227e-05)
(-0.000815517 0.0133006 -0.00220588)
(0.00128854 0.00202733 0.000121885)
(0.000933196 0.00163269 0.000252551)
(0.000462542 0.00110816 0.000108109)
(0.000158284 0.000675703 4.51668e-05)
(1.73615e-05 0.00032003 9.44535e-06)
(-7.62305e-06 7.10744e-05 -6.08994e-06)
(0.00184697 0.00252153 2.66071e-05)
(0.00248722 0.00320024 1.73343e-05)
(0.00306747 0.00410682 1.8328e-05)
(0.00329027 0.00521136 2.0677e-05)
(0.00281622 0.006138 2.04701e-05)
(0.00172769 0.0062517 9.74519e-06)
(0.000748138 0.00660066 -4.51549e-06)
(-0.000726361 0.00689767 -0.00112783)
(0.000493682 0.000634886 4.19452e-05)
(0.000827587 0.000971176 0.000267671)
(0.000500611 0.000759186 9.26295e-05)
(0.000287764 0.000377025 0.000119221)
(0.000236489 0.000550999 4.5397e-05)
(0.000141082 0.0002907 4.38941e-05)
(0.000101722 0.000169608 5.16591e-05)
(7.42529e-05 0.000327828 1.77983e-05)
(4.5263e-05 0.000195087 1.8368e-05)
(3.35921e-05 0.00012153 2.0504e-05)
(2.49265e-05 6.00866e-05 1.21825e-05)
(3.18994e-06 0.000149775 3.44312e-06)
(1.50786e-06 9.21443e-05 3.43904e-06)
(1.58188e-06 6.74091e-05 4.77931e-06)
(1.41122e-06 3.62379e-05 5.13366e-06)
(3.18671e-06 1.42067e-05 -2.31802e-06)
(-5.38827e-06 2.85171e-05 -3.90157e-06)
(-3.67302e-06 1.85873e-05 -3.01407e-06)
(-2.90867e-06 1.43232e-05 -2.72951e-06)
(-2.02938e-06 9.56572e-06 -2.38036e-06)
(-1.27425e-06 3.5649e-06 -2.4202e-06)
(1.12124e-07 7.40623e-07 -4.66689e-06)
(0.000646617 0.000740802 2.10781e-06)
(0.000836048 0.000943709 1.29506e-06)
(0.000997856 0.00123731 1.53875e-06)
(0.00100787 0.00157671 1.76557e-06)
(0.000773412 0.00177561 1.62415e-06)
(0.000405738 0.0016579 7.65604e-07)
(0.00014634 0.00162461 -4.43191e-07)
(-0.000252513 0.00166661 -0.000268843)
(0.00191731 0.00407351 0.000249507)
(0.00106493 0.00321796 0.000209446)
(0.000981868 0.00271003 0.000249738)
(0.000468294 0.00232807 0.000151354)
(0.000415797 0.00190044 0.00016476)
(0.000367875 0.00160941 0.000136996)
(0.000142101 0.00152387 7.84287e-05)
(0.00010922 0.00112672 7.34307e-05)
(8.9662e-05 0.000925956 5.94313e-05)
(7.24517e-05 0.000778232 4.29056e-05)
(8.33102e-06 0.000630427 6.70442e-06)
(2.23262e-06 0.000413097 6.30435e-07)
(-8.54394e-07 0.000303774 -2.2438e-06)
(-3.10212e-06 0.000242661 -5.71253e-06)
(-5.23763e-06 0.000196337 -8.87238e-06)
(0.00315866 0.00559078 0.000163656)
(0.00209235 0.00484281 0.000172631)
(0.00119589 0.00395929 0.000169405)
(0.000581579 0.00317187 0.000153845)
(0.000211028 0.0023269 0.000103304)
(2.10316e-05 0.00106336 3.97385e-05)
(0.0045881 0.00733697 0.000126213)
(0.00343852 0.00678617 0.000142044)
(0.00234468 0.00607231 0.000164023)
(0.00146715 0.00548132 0.000197279)
(0.000801187 0.00488686 0.000221409)
(0.000334891 0.0039207 0.000207508)
(3.70808e-05 0.00187025 0.000164968)
(0.00592143 0.00939587 0.000118915)
(0.00482946 0.00901853 0.000121206)
(0.0037403 0.00863667 0.000142588)
(0.00278848 0.00854517 0.000198719)
(0.00192155 0.00858322 0.000291926)
(0.00114545 0.00834238 0.00039477)
(0.000476924 0.00693723 0.000496194)
(4.1946e-05 0.00317109 0.000409924)
(0.0066728 0.0117786 0.000123311)
(0.00580522 0.0114839 0.000107918)
(0.00493784 0.0114785 0.000108557)
(0.00420696 0.0121924 0.000146285)
(0.00345117 0.0134567 0.000244661)
(0.00255651 0.014762 0.000425141)
(0.00152096 0.0148476 0.000676769)
(0.000529844 0.0117535 0.000940978)
(3.59615e-05 0.00462285 0.000636281)
(0.00618222 0.0141051 0.000124482)
(0.00577914 0.0140027 0.000102274)
(0.0053216 0.0144205 8.63316e-05)
(0.00503354 0.0161372 9.22874e-05)
(0.00476317 0.0192569 0.000137381)
(0.00423303 0.0233608 0.000250918)
(0.00318951 0.026597 0.000446328)
(0.00168511 0.0252615 0.000839087)
(0.000471719 0.0170668 0.0013078)
(2.64807e-05 0.00568232 0.000753277)
(0.00429023 0.0152244 5.27689e-05)
(0.00443152 0.0157061 2.3626e-05)
(0.00447687 0.0166907 -1.99433e-05)
(0.00470383 0.019438 -9.39974e-05)
(0.0051176 0.0246006 -0.000246953)
(0.0055183 0.0324613 -0.000550562)
(0.00537978 0.0411098 -0.000973504)
(0.00401805 0.0440131 -0.000865769)
(0.00186448 0.035641 0.000588877)
(0.000485405 0.0206832 0.00143817)
(2.75556e-05 0.00640554 0.000666802)
(0.0020848 0.0169444 -2.99118e-05)
(0.0024062 0.018427 -5.17903e-05)
(0.00267764 0.0204642 -9.38078e-05)
(0.0030999 0.0247214 -0.000181524)
(0.00381626 0.0324247 -0.000389342)
(0.00499929 0.0444448 -0.000940607)
(0.00646694 0.0587265 -0.00219361)
(0.00660332 0.0669938 -0.00324707)
(0.0043656 0.0615797 -0.00156686)
(0.00198924 0.0456995 0.000895065)
(0.000666108 0.0269305 0.00132021)
(7.85254e-05 0.00906581 0.000505364)
(-0.00107958 0.0175314 -0.00291785)
(-0.000412776 0.0195463 -0.00330248)
(0.000340842 0.022069 -0.00379759)
(0.00130763 0.0267079 -0.00466801)
(0.00281479 0.0345235 -0.00609421)
(0.0052728 0.0460594 -0.0081429)