/*--------------------------------*- C++ -*----------------------------------*\
  =========                 |
  \\      /  F ield         | OpenFOAM: The Open Source CFD Toolbox
   \\    /   O peration     | Website:  https://openfoam.org
    \\  /    A nd           | Version:  7
     \\/     M anipulation  |
\*---------------------------------------------------------------------------*/
FoamFile
{
    version     2.0;
    format      ascii;
    class       surfaceScalarField;
    location    "400";
    object      phi;
}
// * * * * * * * * * * * * * * * * * * * * * * * * * * * * * * * * * * * * * //

dimensions      [0 3 -1 0 0 0 0];

internalField   nonuniform List<scalar> 
125162
(
5.11922e-15
-6.49348e-13
3.18649e-11
1.43969e-14
-7.25441e-13
3.5356e-11
6.29865e-15
-1.43163e-12
4.02397e-11
4.51838e-14
-5.71676e-13
3.23914e-11
2.5389e-14
-8.06641e-13
3.91672e-11
1.81796e-14
-1.59912e-12
4.46475e-11
7.83085e-14
-6.25141e-13
3.59481e-11
7.62556e-15
-2.3771e-12
5.05949e-11
5.76272e-14
-1.39849e-12
4.10088e-11
1.08998e-13
-7.89198e-12
4.01744e-11
3.66235e-14
-8.93883e-13
4.33117e-11
3.204e-14
-1.7779e-12
4.94599e-11
1.03979e-13
-6.8824e-13
3.98298e-11
2.27432e-14
-2.65434e-12
5.61355e-11
9.89834e-14
-1.53193e-12
4.55129e-11
1.7417e-13
-8.93509e-12
4.4818e-11
8.90072e-15
-3.49844e-12
6.32415e-11
7.32306e-14
-2.53318e-12
5.16563e-11
1.36268e-13
-1.70794e-11
5.006e-11
3.29306e-13
-1.24829e-12
4.10934e-11
4.7708e-14
-9.8835e-13
4.78001e-11
4.62901e-14
-1.97029e-12
5.46935e-11
1.23919e-13
-7.62072e-13
4.40539e-11
4.02015e-14
-2.95066e-12
6.2186e-11
1.31609e-13
-1.68847e-12
5.04276e-11
1.96732e-13
-1e-11
4.98072e-11
2.81153e-14
-3.9042e-12
7.01642e-11
1.24704e-13
-2.77951e-12
5.73316e-11
2.18301e-13
-1.93141e-11
5.58099e-11
4.20147e-13
-1.89308e-12
4.66202e-11
9.81077e-15
-4.80138e-12
7.84722e-11
9.3021e-14
-4.08632e-12
6.47016e-11
1.65392e-13
-2.77069e-11
6.21184e-11
4.12257e-13
-4.57503e-12
5.29745e-11
9.3489e-12
-9.49249e-10
9.59891e-10
2.11026e-11
5.77735e-14
-1.08953e-12
5.26368e-11
6.0303e-14
-2.17855e-12
6.03612e-11
1.36901e-13
-8.42225e-13
4.86293e-11
5.81997e-14
-3.26997e-12
6.87658e-11
1.56663e-13
-1.86913e-12
5.57755e-11
2.00278e-13
-1.11316e-11
5.5182e-11
5.00394e-14
-4.33907e-12
7.7726e-11
1.65786e-13
-3.06636e-12
6.35228e-11
2.47538e-13
-2.16094e-11
6.20076e-11
4.32817e-13
-2.15236e-12
5.19469e-11
3.4185e-14
-5.35358e-12
8.70572e-11
1.5642e-13
-4.49283e-12
7.18141e-11
2.69127e-13
-3.12828e-11
6.91965e-11
5.24705e-13
-5.74572e-12
5.95501e-11
6.35918e-12
-1.12631e-09
1.15164e-09
2.42858e-11
9.92322e-15
-6.28301e-12
9.65047e-11
1.1804e-13
-6.17635e-12
8.04442e-11
1.92441e-13
-3.95072e-11
7.63095e-11
5.0655e-13
-1.03088e-11
6.73456e-11
8.40468e-12
-9.32194e-10
2.75147e-11
5.26256e-11
8.46762e-10
6.05036e-11
1.09606e-11
-9.03319e-10
9.07927e-10
5.53358e-12
6.63352e-14
-1.19772e-12
5.7825e-11
7.30401e-14
-2.4017e-12
6.64689e-11
1.43907e-13
-9.31103e-13
5.35609e-11
7.58499e-14
-3.61553e-12
7.58916e-11
1.73097e-13
-2.06561e-12
6.15682e-11
1.94595e-13
-1.23363e-11
6.09713e-11
7.26849e-14
-4.80836e-12
8.59496e-11
1.97127e-13
-3.39414e-12
7.02595e-11
2.52509e-13
-2.40529e-11
6.86917e-11
4.30482e-13
-2.39876e-12
5.75831e-11
6.16274e-14
-5.94788e-12
9.64383e-11
2.07704e-13
-4.96136e-12
7.95697e-11
3.08224e-13
-3.4985e-11
7.68593e-11
5.47729e-13
-6.44059e-12
6.62728e-11
3.71486e-12
-1.27307e-09
1.30069e-09
2.69719e-11
4.06934e-14
-6.99772e-12
1.07055e-10
1.95109e-13
-6.80689e-12
8.92942e-11
3.24164e-13
-4.45084e-11
8.49081e-11
6.51586e-13
-1.20388e-11
7.53446e-11
6.52444e-12
-1.09583e-09
3.09504e-11
3.26492e-11
1.09535e-09
7.62624e-11
7.36575e-12
-1.08381e-09
1.10531e-09
6.37877e-12
8.86281e-15
-7.92747e-12
1.1738e-10
1.49242e-13
-8.9022e-12
9.90813e-11
2.09929e-13
-5.20489e-11
9.2776e-11
6.21589e-13
-1.90084e-11
8.43876e-11
7.87987e-12
-9.07622e-10
3.4893e-11
1.0179e-11
-8.93239e-10
7.25563e-12
1.21485e-10
6.38897e-10
8.63794e-11
5.65097e-11
8.92343e-10
1.95779e-11
1.15042e-11
-6.89438e-10
6.80803e-10
2.66391e-12
7.29183e-14
-1.31264e-12
6.33555e-11
8.38674e-14
-2.64036e-12
7.30205e-11
1.45276e-13
-1.02723e-12
5.88509e-11
9.19022e-14
-3.98599e-12
8.35706e-11
1.81916e-13
-2.28256e-12
6.78115e-11
1.8368e-13
-1.36194e-11
6.71912e-11
9.48166e-14
-5.31621e-12
9.48556e-11
2.17808e-13
-3.75105e-12
7.75564e-11
2.45566e-13
-2.66554e-11
7.58942e-11
3.99698e-13
-2.63499e-12
6.36371e-11
8.99801e-14
-6.59029e-12
1.06641e-10
2.46594e-13
-5.49185e-12
8.80084e-11
3.15817e-13
-3.89362e-11
8.51352e-11
5.44167e-13
-7.16656e-12
7.34631e-11
2.17262e-12
-1.41404e-09
1.44339e-09
2.97738e-11
7.48877e-14
-7.77097e-12
1.1859e-10
2.58354e-13
-7.52454e-12
9.89383e-11
3.78074e-13
-4.97444e-11
9.42752e-11
6.89742e-13
-1.34044e-11
8.3785e-11
3.87362e-12
-1.23843e-09
3.42817e-11
1.90187e-11
1.22896e-09
8.53535e-11
4.5046e-12
-1.2255e-09
1.24839e-09
6.9468e-12
4.72733e-14
-8.81839e-12
1.30205e-10
2.41513e-13
-9.83489e-12
1.09991e-10
3.77967e-13
-5.84781e-11
1.03096e-10
8.05538e-13
-2.15342e-11
9.42195e-11
6.79214e-12
-1.05818e-09
3.87855e-11
7.76155e-12
-1.05853e-09
8.08248e-12
1.10154e-10
9.71047e-10
1.35634e-10
3.51751e-11
1.17792e-09
2.49922e-11
8.65537e-12
-8.50816e-10
8.56938e-10
3.1051e-12
6.63571e-15
-9.69794e-12
1.40872e-10
1.86852e-13
-1.23052e-11
1.20596e-10
2.08606e-13
-6.47781e-11
1.11602e-10
7.65118e-13
-3.11085e-11
1.04111e-10
7.64145e-12
-8.74593e-10
4.37178e-11
9.6105e-12
-8.77809e-10
9.85263e-12
1.10778e-11
-6.96615e-10
3.35471e-12
1.08702e-10
4.76697e-10
5.34985e-11
1.1517e-10
8.17407e-10
4.61455e-11
5.67277e-11
6.34705e-10
8.94793e-12
9.65225e-12
-4.89109e-10
4.81263e-10
8.57731e-13
7.72463e-14
-1.43393e-12
6.92097e-11
9.21924e-14
-2.89388e-12
8.00044e-11
1.42009e-13
-1.13057e-12
6.44893e-11
1.05539e-13
-4.38227e-12
9.18079e-11
1.83641e-13
-2.517e-12
7.45086e-11
1.70017e-13
-1.49848e-11
7.38494e-11
1.14954e-13
-5.86095e-12
1.04453e-10
2.28863e-13
-4.14381e-12
8.54208e-11
2.31931e-13
-2.94281e-11
8.36339e-11
3.56799e-13
-2.90289e-12
7.0137e-11
1.17583e-13
-7.28553e-12
1.1769e-10
2.72442e-13
-6.06997e-12
9.71487e-11
3.07846e-13
-4.31478e-11
9.40567e-11
5.05805e-13
-7.89709e-12
8.11947e-11
1.31274e-12
-1.56298e-09
1.59466e-09
3.28133e-11
1.10157e-13
-8.60835e-12
1.31134e-10
3.06136e-13
-8.33024e-12
1.09431e-10
3.90601e-13
-5.53506e-11
1.0441e-10
6.85662e-13
-1.49029e-11
9.28756e-11
2.30468e-12
-1.37686e-09
3.78515e-11
1.10389e-11
1.35734e-09
9.4035e-11
2.85988e-12
-1.35843e-09
1.38232e-09
7.51912e-12
8.95413e-14
-9.78742e-12
1.44231e-10
3.18308e-13
-1.0883e-11
1.21871e-10
4.54071e-13
-6.53015e-11
1.14419e-10
8.65265e-13
-2.39164e-11
1.04727e-10
4.18655e-12
-1.19493e-09
4.289e-11
4.78709e-12
-1.19703e-09
8.77869e-12
7.38886e-11
1.10782e-09
1.57405e-10
2.15901e-11
1.31971e-09
2.76169e-11
5.65368e-12
-9.70526e-10
9.77127e-10
3.34729e-12
5.36256e-14
-1.07755e-11
1.56256e-10
2.95563e-13
-1.36239e-11
1.33885e-10
4.22307e-13
-7.25608e-11
1.2386e-10
9.9235e-13
-3.48276e-11
1.16162e-10
7.11034e-12
-1.01177e-09
4.83364e-11
8.19021e-12
-1.0291e-09
1.07816e-11
9.06415e-12
-8.44465e-10
3.74552e-12
1.25076e-10
8.44892e-10
1.09781e-10
1.0766e-10
1.25158e-09
6.94803e-11
4.09764e-11
8.8588e-10
1.18013e-11
7.62668e-12
-6.17242e-10
6.21398e-10
9.74401e-13
3.92483e-15
-1.15258e-11
1.66364e-10
2.29512e-13
-1.63292e-11
1.44667e-10
1.81386e-13
-7.70537e-11
1.32691e-10
9.41017e-13
-4.66585e-11
1.26211e-10
7.43445e-12
-8.32274e-10
5.43578e-11
9.27735e-12
-8.57018e-10
1.36495e-11
1.06147e-11
-7.01765e-10
4.38823e-12
9.52196e-12
-4.96395e-10
1.11824e-12
4.2483e-11
1.88996e-11
4.15314e-10
9.23205e-11
7.38241e-10
4.03441e-11
1.19299e-10
5.4121e-10
2.03413e-11
4.56757e-11
4.41583e-10
2.95292e-12
6.86626e-12
-3.1049e-10
3.0407e-10
4.11423e-13
7.91976e-14
-1.5612e-12
7.53675e-11
9.76631e-14
-3.16151e-12
8.73971e-11
1.35049e-13
-1.24018e-12
7.04568e-11
1.16024e-13
-4.80328e-12
1.00589e-10
1.79498e-13
-2.76876e-12
8.16467e-11
1.54787e-13
-1.64325e-11
8.0937e-11
1.32046e-13
-6.44377e-12
1.14749e-10
2.31032e-13
-4.56798e-12
9.38567e-11
2.14755e-13
-3.23793e-11
9.19202e-11
3.0662e-13
-3.19262e-12
7.70922e-11
1.42703e-13
-8.03183e-12
1.29597e-10
2.86206e-13
-6.70407e-12
1.07e-10
2.9116e-13
-4.76362e-11
1.03646e-10
4.51328e-13
-8.70776e-12
8.94933e-11
8.19619e-13
-1.72212e-09
1.75665e-09
3.61075e-11
1.44362e-13
-9.51482e-12
1.4472e-10
3.3815e-13
-9.20875e-12
1.20797e-10
3.82443e-13
-6.13335e-11
1.15343e-10
6.38091e-13
-1.64511e-11
1.02658e-10
1.40701e-12
-1.52262e-09
4.17335e-11
6.59899e-12
1.49569e-09
1.03412e-10
1.9398e-12
-1.50008e-09
1.52565e-09
8.15697e-12
1.33017e-13
-1.08387e-11
1.59486e-10
3.76338e-13
-1.2051e-11
1.34797e-10
4.75656e-13
-7.26359e-11
1.26695e-10
8.60809e-13
-2.65794e-11
1.16091e-10
2.55797e-12
-1.32971e-09
4.73553e-11
3.0698e-12
-1.32838e-09
9.52543e-12
4.48259e-11
1.21361e-09
1.72787e-10
1.3783e-11
1.45426e-09
2.9903e-11
3.59384e-12
-1.07665e-09
1.08266e-09
3.56777e-12
1.05157e-13
-1.19525e-11
1.73087e-10
3.87143e-13
-1.50897e-11
1.48346e-10
5.30276e-13
-8.09402e-11
1.37402e-10
1.07927e-12
-3.86641e-11
1.2908e-10
4.62931e-12
-1.14113e-09
5.34099e-11
5.20566e-12
-1.16287e-09
1.17138e-11
5.88007e-12
-9.62581e-10
4.01795e-12
9.71975e-11
9.99529e-10
1.36174e-10
7.73917e-11
1.42671e-09
8.06753e-11
2.73312e-11
1.0055e-09
1.28903e-11
5.2033e-12
-7.06589e-10
7.11363e-10
9.9754e-13
5.97651e-14
-1.27949e-11
1.84527e-10
3.55614e-13
-1.81094e-11
1.60616e-10
4.47691e-13
-8.60574e-11
1.47116e-10
1.21433e-12
-5.20367e-11
1.40796e-10
7.34949e-12
-9.5551e-10
5.99863e-11
8.646e-12
-9.94997e-10
1.48632e-11
9.41494e-12
-8.37256e-10
4.77219e-12
7.9891e-12
-6.13176e-10
1.21242e-12
5.72768e-11
4.49305e-11
7.85168e-10
1.12283e-10
1.27106e-09
7.0341e-11
1.26691e-10
9.14703e-10
3.32664e-11
3.54837e-11
6.39579e-10
3.81243e-12
5.72723e-12
-3.98521e-10
4.00162e-10
4.72393e-13
2.08634e-15
-1.33024e-11
1.92756e-10
2.73629e-13
-2.07875e-11
1.70548e-10
1.2859e-13
-8.81723e-11
1.55657e-10
1.1436e-12
-6.50755e-11
1.49964e-10
6.99675e-12
-7.80287e-10
6.72264e-11
9.04649e-12
-8.30756e-10
1.90492e-11
1.02042e-11
-7.04284e-10
5.96448e-12
9.23639e-12
-5.02775e-10
1.53194e-12
6.88591e-12
-3.16787e-10
5.29416e-13
3.70401e-11
1.47206e-11
7.0538e-10
3.2559e-11
1.26522e-11
3.70103e-10
9.93321e-11
4.61204e-10
2.10183e-11
9.20183e-11
3.62758e-10
7.14761e-12
3.16193e-11
2.74071e-10
1.33289e-12
4.08492e-12
-1.72038e-10
1.6823e-10
1.34759e-13
7.88287e-14
-1.69365e-12
8.17874e-11
1.00128e-13
-3.44234e-12
9.51733e-11
1.25423e-13
-1.35538e-12
7.67325e-11
1.22911e-13
-5.24776e-12
1.09883e-10
1.70695e-13
-3.03567e-12
8.92014e-11
1.38749e-13
-1.79591e-11
8.8432e-11
1.45186e-13
-7.06312e-12
1.25723e-10
2.25815e-13
-5.02301e-12
1.02848e-10
1.9556e-13
-3.55081e-11
1.00742e-10
2.56362e-13
-3.50542e-12
8.44927e-11
1.64001e-13
-8.8305e-12
1.42371e-10
2.88923e-13
-7.38842e-12
1.17566e-10
2.69828e-13
-5.24139e-11
1.13913e-10
3.87856e-13
-9.5793e-12
9.83703e-11
5.26465e-13
-1.89229e-09
1.93002e-09
3.96543e-11
1.7548e-13
-1.04887e-11
1.59361e-10
3.55153e-13
-1.01693e-11
1.33046e-10
3.62682e-13
-6.77127e-11
1.27096e-10
5.69263e-13
-1.81504e-11
1.13157e-10
8.85853e-13
-1.67804e-09
4.59354e-11
4.07045e-12
1.64552e-09
1.13653e-10
1.35776e-12
-1.65246e-09
1.68028e-09
8.86981e-12
1.75045e-13
-1.19772e-11
1.76008e-10
4.15546e-13
-1.33248e-11
1.48797e-10
4.69318e-13
-8.04767e-11
1.39946e-10
8.02208e-13
-2.93779e-11
1.28328e-10
1.58411e-12
-1.47121e-09
5.22198e-11
2.09142e-12
-1.46773e-09
1.03633e-11
2.69164e-11
1.32517e-09
1.88429e-10
9.33245e-12
1.60116e-09
3.23531e-11
2.33193e-12
-1.18743e-09
1.19305e-09
3.79928e-12
1.58058e-13
-1.32314e-11
1.91392e-10
4.56679e-13
-1.67137e-11
1.64079e-10
5.67489e-13
-8.99857e-11
1.52109e-10
1.07475e-12
-4.29647e-11
1.43085e-10
2.9246e-12
-1.27088e-09
5.8966e-11
3.40881e-12
-1.29198e-09
1.27484e-11
3.73433e-12
-1.06927e-09
4.29324e-12
6.36573e-11
1.09603e-09
1.51123e-10
5.23974e-11
1.56372e-09
8.83281e-11
1.76814e-11
1.10855e-09
1.36618e-11
3.42752e-12
-7.82716e-10
7.87062e-10
9.98116e-13
1.21268e-13
-1.41846e-11
2.04401e-10
4.6276e-13
-2.00727e-11
1.77963e-10
5.97893e-13
-9.58761e-11
1.63132e-10
1.33263e-12
-5.7794e-11
1.56414e-10
5.11481e-12
-1.07608e-09
6.62682e-11
5.78121e-12
-1.12278e-09
1.61866e-11
6.1726e-12
-9.52739e-10
5.11433e-12
5.34409e-12
-7.01168e-10
1.24178e-12
4.72442e-11
5.83441e-11
9.51218e-10
9.49301e-11
1.49436e-09
8.58762e-11
9.83202e-11
1.07617e-09
3.83719e-11
2.5142e-11
7.30629e-10
3.96577e-12
4.14268e-12
-4.58063e-10
4.60163e-10
4.81554e-13
6.61747e-14
-1.47581e-11
2.13802e-10
4.17669e-13
-2.30794e-11
1.89353e-10
4.47001e-13
-9.82248e-11
1.72465e-10
1.46476e-12
-7.25229e-11
1.67281e-10
7.36496e-12
-8.89242e-10
7.41597e-11
9.04504e-12
-9.55796e-10
2.07862e-11
9.74306e-12
-8.28356e-10
6.42431e-12
8.22249e-12
-6.09009e-10
1.61854e-12
6.0101e-12
-3.97009e-10
5.76948e-13
5.06575e-11
2.89695e-11
1.2734e-09
4.77882e-11
3.39194e-11
7.36019e-10
1.34742e-10
9.09551e-10
4.00821e-11
1.07688e-10
6.45685e-10
1.14917e-11
2.63099e-11
4.0752e-10
1.76338e-12
3.54852e-12
-2.23621e-10
2.24494e-10
1.35976e-13
2.69054e-15
-1.48804e-11
2.18448e-10
3.13621e-13
-2.53512e-11
1.97006e-10
6.07198e-14
-9.74027e-11
1.79718e-10
1.35291e-12
-8.50452e-11
1.74274e-10
6.19571e-12
-7.19172e-10
8.26532e-11
8.69054e-12
-7.987e-10
2.648e-11
9.82625e-12
-7.03384e-10
8.32274e-12
8.87392e-12
-5.07877e-10
2.19231e-12
6.74595e-12
-3.22712e-10
7.10524e-13
4.14397e-12
-1.75834e-10
1.81525e-13
3.91682e-11
9.99345e-12
4.26763e-10
2.90553e-11
1.1365e-11
6.77611e-10
5.37918e-11
1.50197e-11
3.01292e-10
7.34795e-11
3.03371e-10
6.92585e-12
6.20996e-11
2.16367e-10
2.75188e-12
1.8468e-11
1.5067e-10
4.24243e-13
2.03852e-12
-8.2998e-11
8.10349e-11
5.93042e-14
7.63597e-14
-1.83027e-12
8.84201e-11
9.96582e-14
-3.73458e-12
1.0328e-10
1.14055e-13
-1.4751e-12
8.32739e-11
1.26013e-13
-5.71419e-12
1.1966e-10
1.58522e-13
-3.31619e-12
9.71462e-11
1.22457e-13
-1.95609e-11
9.63098e-11
1.53814e-13
-7.71709e-12
1.37341e-10
2.14743e-13
-5.5053e-12
1.12364e-10
1.75321e-13
-3.88078e-11
1.1007e-10
2.09613e-13
-3.83656e-12
9.23153e-11
1.8037e-13
-9.6795e-12
1.55987e-10
2.82403e-13
-8.12183e-12
1.28829e-10
2.45841e-13
-5.74795e-11
1.24843e-10
3.24231e-13
-1.05142e-11
1.07814e-10
3.47527e-13
-2.07342e-09
2.11465e-09
4.34407e-11
2.01832e-13
-1.15313e-11
1.75067e-10
3.58551e-13
-1.12052e-11
1.46184e-10
3.36662e-13
-7.45041e-11
1.39682e-10
4.89243e-13
-1.99719e-11
1.24385e-10
5.72951e-13
-1.84406e-09
5.04542e-11
2.58663e-12
1.80676e-09
1.2475e-10
9.56278e-13
-1.81587e-09
1.84627e-09
9.65635e-12
2.13251e-13
-1.32015e-11
1.93813e-10
4.3638e-13
-1.47136e-11
1.63884e-10
4.47127e-13
-8.8843e-11
1.54198e-10
7.15538e-13
-3.24282e-11
1.4146e-10
1.00712e-12
-1.62179e-09
5.74831e-11
1.46923e-12
-1.6172e-09
1.12946e-11
1.64863e-11
1.45004e-09
2.05909e-10
6.5013e-12
1.76168e-09
3.50839e-11
1.53076e-12
-1.30608e-09
1.31169e-09
4.05419e-12
2.09102e-13
-1.46173e-11
2.11216e-10
5.04077e-13
-1.84845e-11
1.8112e-10
5.66782e-13
-9.96788e-11
1.67999e-10
1.00317e-12
-4.75358e-11
1.58176e-10
1.84464e-12
-1.40682e-09
6.50242e-11
2.34107e-12
-1.42835e-09
1.39089e-11
2.42349e-12
-1.18035e-09
4.59291e-12
3.94166e-11
1.18535e-09
1.64066e-10
3.58646e-11
1.71053e-09
9.5589e-11
1.15324e-11
1.21715e-09
1.43967e-11
2.28528e-12
-8.61293e-10
8.65241e-10
9.935e-13
1.84474e-13
-1.56962e-11
2.26015e-10
5.44851e-13
-2.22384e-11
1.96834e-10
6.59757e-13
-1.06521e-10
1.80553e-10
1.32926e-12
-6.42258e-11
1.73374e-10
3.35919e-12
-1.1992e-09
7.31576e-11
3.90202e-12
-1.2488e-09
1.76685e-11
3.95785e-12
-1.05979e-09
5.48597e-12
3.4771e-12
-7.77815e-10
1.25942e-12
3.24191e-11
6.57337e-11
1.04512e-09
6.99946e-11
1.64476e-09
9.50192e-11
6.82004e-11
1.18625e-09
4.07533e-11
1.70556e-11
8.04885e-10
3.92436e-12
2.84537e-12
-5.07496e-10
5.09316e-10
4.75153e-13
1.37521e-13
-1.63533e-11
2.36827e-10
5.40648e-13
-2.55951e-11
2.098e-10
6.47157e-13
-1.09289e-10
1.91175e-10
1.61729e-12
-8.05962e-11
1.85782e-10
5.52379e-12
-9.99762e-10
8.19361e-11
6.46178e-12
-1.07664e-09
2.27121e-11
6.60194e-12
-9.40316e-10
6.90528e-12
5.46015e-12
-6.94962e-10
1.67077e-12
4.22918e-12
-4.55627e-10
5.87376e-13
4.49674e-11
3.6538e-11
1.52186e-09
4.14219e-11
4.57319e-11
9.11852e-10
1.21643e-10
1.12589e-09
4.92541e-11
8.99941e-11
7.73764e-10
1.29306e-11
1.99202e-11
4.68699e-10
1.81978e-12
2.69345e-12
-2.57802e-10
2.5902e-10
1.18476e-13
7.36379e-14
-1.6503e-11
2.42305e-10
4.75273e-13
-2.81638e-11
2.18724e-10
4.19725e-13
-1.08297e-10
1.99066e-10
1.72304e-12
-9.47918e-11
1.94363e-10
7.04926e-12
-8.14017e-10
9.12025e-11
9.26009e-12
-9.11227e-10
2.90212e-11
1.00144e-11
-8.16734e-10
8.97658e-12
8.37294e-12
-6.04389e-10
2.3054e-12
6.15428e-12
-3.95548e-10
7.49233e-13
3.7349e-12
-2.22814e-10
1.79389e-13
6.03837e-11
1.99212e-11
8.97384e-10
4.25874e-11
2.3818e-11
1.26997e-09
8.52222e-11
5.12215e-11
6.53367e-10
1.12399e-10
6.33448e-10
1.33998e-11
7.88142e-11
3.97584e-10
4.71339e-12
1.61274e-11
2.28127e-10
4.70476e-13
1.80712e-12
-1.08511e-10
1.08817e-10
6.16592e-14
6.76737e-15
2.41449e-10
3.43299e-13
-2.95741e-11
2.22328e-10
-4.36334e-15
-1.04059e-10
2.03666e-10
1.5344e-12
-1.04639e-10
1.97778e-10
5.07356e-12
-6.50688e-10
1.00717e-10
8.04294e-12
-7.6042e-10
3.63302e-11
9.32824e-12
-6.97981e-10
1.17486e-11
8.47701e-12
-5.11261e-10
3.23036e-12
6.49081e-12
-3.28009e-10
9.98511e-13
4.09477e-12
-1.79474e-10
2.56086e-13
2.07955e-12
-8.49744e-11
7.83472e-14
2.80368e-11
2.80712e-12
2.82521e-10
3.03413e-11
8.27675e-12
3.9951e-10
4.88776e-11
2.06622e-11
6.23091e-10
7.71658e-11
1.07016e-11
2.13424e-10
4.81416e-11
1.72602e-10
2.54961e-12
3.54682e-11
1.17147e-10
8.06974e-13
9.13328e-12
7.21442e-11
1.81689e-13
8.83566e-13
-3.52113e-11
3.43727e-11
1.4405e-14
7.21328e-14
-1.96984e-12
9.52025e-11
9.65327e-14
-4.03604e-12
1.11656e-10
1.01759e-13
-1.59829e-12
9.00307e-11
1.2542e-13
-6.1996e-12
1.29853e-10
1.44149e-13
-3.60778e-12
1.05427e-10
1.06391e-13
-2.12281e-11
1.04518e-10
1.577e-13
-8.40341e-12
1.49561e-10
1.9943e-13
-6.01214e-12
1.22372e-10
1.54745e-13
-4.22698e-11
1.19876e-10
1.68566e-13
-4.18387e-12
1.00535e-10
1.91114e-13
-1.05761e-11
1.70401e-10
2.68571e-13
-8.89892e-12
1.40748e-10
2.20472e-13
-6.28216e-11
1.36403e-10
2.65088e-13
-1.15025e-11
1.17795e-10
2.34367e-13
-2.265e-09
2.30998e-09
4.74491e-11
2.22079e-13
-1.264e-11
1.9181e-10
3.50496e-13
-1.23142e-11
1.60187e-10
3.07051e-13
-8.17049e-11
1.53084e-10
4.08961e-13
-2.19192e-11
1.36329e-10
3.80551e-13
-2.02069e-09
5.52749e-11
1.68974e-12
1.97891e-09
1.36635e-10
6.70221e-13
-1.98987e-09
2.02309e-09
1.051e-11
2.45569e-13
-1.45129e-11
2.12913e-10
4.40648e-13
-1.62103e-11
1.80068e-10
4.16237e-13
-9.77521e-11
1.69463e-10
6.15023e-13
-3.56928e-11
1.55504e-10
6.56194e-13
-1.78247e-09
6.31406e-11
1.03804e-12
-1.7773e-09
1.23162e-11
1.03963e-11
1.58754e-09
2.25306e-10
4.55696e-12
1.93485e-09
3.81091e-11
1.0044e-12
-1.43329e-09
1.43913e-09
4.33914e-12
2.5547e-13
-1.61091e-11
2.32582e-10
5.29409e-13
-2.04106e-11
1.99484e-10
5.43972e-13
-1.10032e-10
1.85096e-10
8.94747e-13
-5.24948e-11
1.74373e-10
1.18623e-12
-1.55125e-09
7.15784e-11
1.65244e-12
-1.57422e-09
1.51908e-11
1.59418e-12
-1.29888e-09
4.92447e-12
2.43483e-11
1.2867e-09
1.7841e-10
2.48778e-11
1.8751e-09
1.03481e-10
7.56438e-12
1.33554e-09
1.51995e-11
1.54948e-12
-9.45519e-10
9.49317e-10
9.91705e-13
2.45479e-13
-1.73353e-11
2.49425e-10
6.0137e-13
-2.45991e-11
2.17275e-10
6.70781e-13
-1.17961e-10
1.99391e-10
1.24326e-12
-7.11147e-11
1.91664e-10
2.16827e-12
-1.32813e-09
8.06703e-11
2.7125e-12
-1.38146e-09
1.93228e-11
2.5812e-12
-1.17096e-09
5.89953e-12
2.30193e-12
-8.56803e-10
1.27888e-12
2.05088e-11
7.15631e-11
1.12569e-09
4.95731e-11
1.79253e-09
1.02496e-10
4.5579e-11
1.29304e-09
4.23226e-11
1.15375e-11
8.81344e-10
3.81145e-12
1.90746e-12
-5.57909e-10
5.59376e-10
4.63595e-13
2.11215e-13
-1.80897e-11
2.61869e-10
6.36007e-13
-2.83616e-11
2.32043e-10
7.43807e-13
-1.21329e-10
2.11546e-10
1.61827e-12
-8.9573e-11
2.05899e-10
3.79274e-12
-1.11455e-09
9.04557e-11
4.52709e-12
-1.19857e-09
2.48578e-11
4.33025e-12
-1.0473e-09
7.44251e-12
3.53149e-12
-7.72125e-10
1.72415e-12
2.84744e-12
-5.05442e-10
5.87684e-13
3.4547e-11
4.06106e-11
1.6803e-09
2.94514e-11
5.21142e-11
1.00498e-09
9.21405e-11
1.25702e-09
5.37477e-11
6.63528e-11
8.56232e-10
1.30479e-11
1.41837e-11
5.17219e-10
1.75807e-12
1.94898e-12
-2.85683e-10
2.86808e-10
9.4878e-14
1.53672e-13
-1.82806e-11
2.684e-10
6.13675e-13
-3.12436e-11
2.42337e-10
6.70731e-13
-1.20346e-10
2.20606e-10
1.91204e-12
-1.05395e-10
2.15785e-10
5.7342e-12
-9.13465e-10
1.008e-10
7.13455e-12
-1.02439e-09
3.18164e-11
7.16577e-12
-9.24455e-10
9.69888e-12
5.63811e-12
-6.87733e-10
2.41082e-12
4.24028e-12
-4.5281e-10
7.67395e-13
2.74808e-12
-2.56392e-10
1.63477e-13
5.79313e-11
2.516e-11
1.13972e-09
3.92481e-11
3.07758e-11
1.54015e-09
8.01069e-11
7.36341e-11
8.43333e-10
1.10624e-10
8.08303e-10
1.64896e-11
7.04349e-11
4.84768e-10
5.24098e-12
1.28602e-11
2.63721e-10
3.86503e-13
1.41011e-12
-1.25225e-10
1.25687e-10
5.36441e-14
8.27101e-14
2.67828e-10
5.20613e-13
-3.28642e-11
2.46828e-10
3.74019e-13
-1.15547e-10
2.25595e-10
1.95341e-12
-1.16648e-10
2.20504e-10
6.37295e-12
-7.32154e-10
1.11201e-10
9.16962e-12
-8.61134e-10
3.99827e-11
1.01261e-11
-8.01256e-10
1.27448e-11
8.46045e-12
-5.98822e-10
3.42622e-12
6.19058e-12
-3.93985e-10
1.04253e-12
3.82094e-12
-2.22045e-10
2.53289e-13
1.90581e-12
-1.08237e-10
7.90314e-14
4.92832e-11
6.13297e-12
6.25989e-10
5.02035e-11
1.72194e-11
8.84121e-10
7.7643e-11
4.45922e-11
1.24784e-09
1.37189e-10
6.37855e-11
5.29559e-10
8.04932e-11
3.7326e-10
5.37149e-12
4.76154e-11
2.19613e-10
1.08039e-12
8.16331e-12
1.10048e-10
2.09512e-13
7.98408e-13
-4.62109e-11
4.63525e-11
5.2254e-15
3.57913e-13
-3.29659e-11
2.44483e-10
-4.93099e-14
-1.07602e-10
2.25921e-10
1.64713e-12
-1.21651e-10
2.19031e-10
3.80287e-12
-5.77749e-10
1.21036e-10
7.08728e-12
-7.1564e-10
4.88493e-11
8.55363e-12
-6.86765e-10
1.65608e-11
7.98827e-12
-5.12315e-10
4.81425e-12
6.16677e-12
-3.324e-10
1.4547e-12
3.95611e-12
-1.82808e-10
3.76337e-13
2.06356e-12
-8.68897e-11
1.07824e-13
9.04123e-13
-3.60583e-11
2.12139e-14
1.77797e-11
1.16681e-12
1.56462e-10
2.13657e-11
2.28155e-12
2.6715e-10
5.02516e-11
1.39932e-11
3.55927e-10
7.26237e-11
3.52311e-11
5.25938e-10
8.38127e-11
1.0937e-12
1.28518e-10
2.65921e-11
9.25912e-11
5.13393e-13
1.73455e-11
5.5296e-11
3.09692e-13
3.94062e-12
3.05771e-11
3.66474e-14
3.50285e-13
-1.36972e-11
1.33674e-11
-6.06486e-15
6.65749e-14
-2.11077e-12
1.02056e-10
9.11845e-14
-4.34398e-12
1.20221e-10
8.92132e-14
-1.72373e-12
9.69388e-11
1.21483e-13
-6.7003e-12
1.40384e-10
1.28604e-13
-3.90793e-12
1.13981e-10
9.09913e-14
-2.29487e-11
1.12995e-10
1.56955e-13
-9.11766e-12
1.62301e-10
1.81349e-13
-6.53908e-12
1.32803e-10
1.34448e-13
-4.5873e-11
1.30093e-10
1.33844e-13
-4.54412e-12
1.09097e-10
1.95955e-13
-1.15172e-11
1.85562e-10
2.49433e-13
-9.71549e-12
1.53283e-10
1.94638e-13
-6.84264e-11
1.48554e-10
2.13164e-13
-1.25389e-11
1.28283e-10
1.60305e-13
-2.46642e-09
2.51536e-09
5.16632e-11
2.35366e-13
-1.38113e-11
2.09533e-10
3.33378e-13
-1.3489e-11
1.75008e-10
2.75546e-13
-8.92988e-11
1.67257e-10
3.34365e-13
-2.39758e-11
1.48951e-10
2.58148e-13
-2.20745e-09
6.03767e-11
1.12806e-12
2.1613e-09
1.49235e-10
4.65289e-13
-2.17385e-09
2.21008e-09
1.14242e-11
2.70393e-13
-1.59081e-11
2.33275e-10
4.30863e-13
-1.78112e-11
1.97317e-10
3.80313e-13
-1.07199e-10
1.85717e-10
5.14082e-13
-3.91746e-11
1.7044e-10
4.38512e-13
-1.95331e-09
6.91746e-11
7.29606e-13
-1.94771e-09
1.34207e-11
6.74254e-12
1.7362e-09
2.46364e-10
3.17877e-12
2.1197e-09
4.14046e-11
6.53673e-13
-1.56883e-09
1.57504e-09
4.65613e-12
2.94661e-13
-1.77078e-11
2.55502e-10
5.34842e-13
-2.24851e-11
2.19183e-10
5.08725e-13
-1.21061e-10
2.03412e-10
7.69249e-13
-5.77977e-11
1.91693e-10
7.79176e-13
-1.70518e-09
7.86228e-11
1.1717e-12
-1.73027e-09
1.65897e-11
1.04882e-12
-1.42572e-09
5.29279e-12
1.53807e-11
1.40182e-09
1.94693e-10
1.73233e-11
2.05549e-09
1.1223e-10
4.95017e-12
1.46373e-09
1.61177e-11
1.06049e-12
-1.03618e-09
1.04001e-09
9.97629e-13
3.00896e-13
-1.91013e-11
2.74654e-10
6.31981e-13
-2.71624e-11
2.39303e-10
6.50856e-13
-1.30196e-10
2.19669e-10
1.10947e-12
-7.85657e-11
2.11301e-10
1.41429e-12
-1.46492e-09
8.87981e-11
1.92632e-12
-1.523e-09
2.11398e-11
1.70595e-12
-1.28917e-09
6.35762e-12
1.55827e-12
-9.41156e-10
1.30559e-12
1.28067e-11
7.77995e-11
1.2166e-09
3.47091e-11
1.95806e-09
1.10313e-10
3.00562e-11
1.41067e-09
4.38784e-11
7.85462e-12
9.64514e-10
3.68578e-12
1.23495e-12
-6.11636e-10
6.1285e-10
4.50548e-13
2.82564e-13
-1.99735e-11
2.88991e-10
7.02492e-13
-3.13763e-11
2.56135e-10
7.74751e-13
-1.3431e-10
2.33593e-10
1.51829e-12
-9.92387e-11
2.27615e-10
2.52012e-12
-1.23493e-09
9.9741e-11
3.20042e-12
-1.3267e-09
2.72369e-11
2.8578e-12
-1.15821e-09
8.044e-12
2.32722e-12
-8.51488e-10
1.78884e-12
1.88186e-12
-5.56251e-10
5.86524e-13
2.49526e-11
4.35879e-11
1.8301e-09
1.89697e-11
5.67597e-11
1.07942e-09
6.43197e-11
1.36701e-09
5.63484e-11
4.65963e-11
9.30861e-10
1.25619e-11
9.71969e-12
5.66006e-10
1.64623e-12
1.37622e-12
-3.13911e-10
3.14878e-10
6.88145e-14
2.37035e-13
-2.02159e-11
2.96779e-10
7.22511e-13
-3.46237e-11
2.68022e-10
8.10378e-13
-1.33496e-10
2.4407e-10
1.92352e-12
-1.17137e-10
2.39098e-10
4.14444e-12
-1.01836e-09
1.11294e-10
5.21637e-12
-1.1411e-09
3.49021e-11
4.86911e-12
-1.03065e-09
1.05039e-11
3.67142e-12
-7.65246e-10
2.53079e-12
2.80073e-12
-5.03061e-10
7.82314e-13
1.9432e-12
-2.84434e-10
1.43469e-13
4.59373e-11
2.79765e-11
1.28165e-09
3.09759e-11
3.45148e-11
1.70617e-09
5.99077e-11
8.55717e-11
9.39606e-10
9.02817e-11
9.12981e-10
1.73412e-11
5.48014e-11
5.40857e-10
5.04294e-12
9.66505e-12
2.91503e-10
2.58188e-13
1.05761e-12
-1.38738e-10
1.39145e-10
4.10067e-14
1.69353e-13
2.96673e-10
6.72976e-13
-3.64631e-11
2.73467e-10
6.67296e-13
-1.28266e-10
2.49963e-10
2.18092e-12
-1.29728e-10
2.44712e-10
5.65469e-12
-8.19918e-10
1.22957e-10
7.65348e-12
-9.66039e-10
4.39612e-11
7.77284e-12
-9.04133e-10
1.38484e-11
5.93109e-12
-6.79139e-10
3.63419e-12
4.24351e-12
-4.49533e-10
1.0814e-12
2.73253e-12
-2.54778e-10
2.42637e-13
1.43995e-12
-1.24668e-10
7.17039e-14
5.22551e-11
7.96034e-12
8.2253e-10
5.03132e-11
2.22041e-11
1.14819e-09
7.64177e-11
5.92829e-11
1.55573e-09
1.45482e-10
1.03319e-10
7.31721e-10
8.52126e-11
4.89922e-10
6.61547e-12
4.47967e-11
2.7091e-10
8.7042e-13
6.69656e-12
1.27371e-10
1.69078e-13
6.38829e-13
-5.34078e-11
5.36303e-11
-9.25767e-15
5.46764e-13
-3.66354e-11
2.7141e-10
3.23957e-13
-1.19391e-10
2.50299e-10
2.11126e-12
-1.35597e-10
2.4408e-10
5.40162e-12
-6.46987e-10
1.33738e-10
8.70937e-12
-8.05482e-10
5.39271e-11
9.94681e-12
-7.80741e-10
1.80745e-11
8.45373e-12
-5.91714e-10
5.1711e-12
6.15223e-12
-3.92074e-10
1.52943e-12
3.8214e-12
-2.21246e-10
3.78928e-13
1.94976e-12
-1.07978e-10
1.07707e-13
8.42689e-13
-4.60828e-11
1.23637e-14
3.42151e-11
2.62872e-12
3.60329e-10
4.03217e-11
5.3113e-12
6.18942e-10
9.021e-11
3.18401e-11
8.56914e-10
1.30757e-10
7.9503e-11
1.17399e-09
1.78029e-10
6.01466e-11
3.75196e-10
4.72258e-11
2.03576e-10
7.75071e-13
2.38847e-11
1.04161e-10
4.2763e-13
3.59783e-12
4.69129e-11
-8.14077e-15
3.2227e-13
-1.80249e-11
1.80828e-11
-2.45811e-14
3.55671e-13
-3.50999e-11
2.61362e-10
-6.52512e-14
-1.07754e-10
2.447e-10
1.65941e-12
-1.34072e-10
2.36683e-10
2.59447e-12
-5.03938e-10
1.42625e-10
5.9369e-12
-6.64545e-10
6.40037e-11
7.46772e-12
-6.6846e-10
2.30767e-11
7.31298e-12
-5.10211e-10
7.14368e-12
5.76465e-12
-3.35511e-10
2.16075e-12
3.75732e-12
-1.8568e-10
5.68574e-13
1.99771e-12
-8.86659e-11
1.54901e-13
8.9954e-13
-3.68823e-11
3.22851e-14
3.58953e-13
-1.40309e-11
-4.05809e-15
9.5337e-12
1.19185e-13
8.41052e-11
1.33407e-11
9.54162e-13
1.44449e-10
3.45705e-11
4.33143e-12
2.42241e-10
7.28471e-11
2.14954e-11
2.96816e-10
8.85433e-11
4.97172e-11
3.88771e-10
6.23979e-11
-2.26613e-12
6.8386e-11
1.27484e-11
4.28732e-11
1.8784e-13
7.45749e-12
2.34145e-11
1.48108e-14
1.55989e-12
1.18849e-11
-4.07201e-14
1.33727e-13
-5.02668e-12
4.90919e-12
-2.23056e-14
6.01488e-14
-2.25129e-12
1.08891e-10
8.41549e-14
-4.65493e-12
1.28876e-10
7.69607e-14
-1.84999e-12
1.03919e-10
1.14748e-13
-7.21175e-12
1.51153e-10
1.12745e-13
-4.21365e-12
1.22727e-10
7.6626e-14
-2.47068e-11
1.2166e-10
1.52025e-13
-9.85441e-12
1.75463e-10
1.61794e-13
-7.0816e-12
1.43578e-10
1.14986e-13
-4.95914e-11
1.40644e-10
1.0525e-13
-4.91445e-12
1.17938e-10
1.95033e-13
-1.24967e-11
2.01369e-10
2.2683e-13
-1.05645e-11
1.66349e-10
1.69129e-13
-7.42597e-11
1.61215e-10
1.6925e-13
-1.36149e-11
1.39207e-10
1.10252e-13
-2.67634e-09
2.72943e-09
5.6054e-11
2.41359e-13
-1.50408e-11
2.28177e-10
3.09666e-13
-1.47232e-11
1.90594e-10
2.4336e-13
-9.7266e-11
1.82155e-10
2.68871e-13
-2.61326e-11
1.62213e-10
1.7763e-13
-2.40379e-09
6.574e-11
7.63299e-13
2.35324e-09
1.62488e-10
3.19845e-13
-2.36717e-09
2.40658e-09
1.23932e-11
2.86685e-13
-1.73824e-11
2.5483e-10
4.0995e-13
-1.95063e-11
2.15572e-10
3.41688e-13
-1.17162e-10
2.02909e-10
4.20335e-13
-4.285e-11
1.86225e-10
2.99145e-13
-2.13392e-09
7.55599e-11
5.07857e-13
-2.12785e-09
1.46007e-11
4.47094e-12
1.89474e-09
2.68829e-10
2.19774e-12
2.31535e-09
4.49432e-11
4.19754e-13
-1.71227e-09
1.71893e-09
5.00474e-12
3.24761e-13
-1.94096e-11
2.79936e-10
5.2326e-13
-2.47021e-11
2.40178e-10
4.66181e-13
-1.32758e-10
2.22918e-10
6.43062e-13
-6.34444e-11
2.10113e-10
5.23986e-13
-1.86875e-09
8.61358e-11
8.26248e-13
-1.89629e-09
1.80968e-11
6.84568e-13
-1.56075e-09
5.69904e-12
9.98121e-12
1.52896e-09
2.12643e-10
1.20109e-11
2.24958e-09
1.21792e-10
3.21108e-12
1.60102e-09
1.71667e-11
7.27022e-13
-1.1331e-09
1.13707e-09
1.0133e-12
3.47735e-13
-2.09951e-11
3.01719e-10
6.39087e-13
-2.99216e-11
2.62932e-10
6.12893e-13
-1.43239e-10
2.41398e-10
9.54499e-13
-8.65297e-11
2.32299e-10
9.38206e-13
-1.61055e-09
9.7534e-11
1.37161e-12
-1.67421e-09
2.31143e-11
1.12753e-12
-1.41541e-09
6.86324e-12
1.0679e-12
-1.03174e-09
1.34311e-12
8.13809e-12
8.48794e-11
1.32161e-09
2.41892e-11
2.14164e-09
1.19056e-10
1.96625e-11
1.54061e-09
4.57517e-11
5.37193e-12
1.05503e-09
3.58132e-12
7.52269e-13
-6.69312e-10
6.70353e-10
4.38595e-13
3.47486e-13
-2.20047e-11
3.18221e-10
7.39338e-13
-3.46455e-11
2.821e-10
7.63194e-13
-1.48217e-10
2.57336e-10
1.35723e-12
-1.09674e-10
2.50938e-10
1.67437e-12
-1.36256e-09
1.09785e-10
2.29143e-12
-1.46313e-09
2.98376e-11
1.90472e-12
-1.27578e-09
8.70857e-12
1.57521e-12
-9.35914e-10
1.86727e-12