/*--------------------------------*- C++ -*----------------------------------*\
  =========                 |
  \\      /  F ield         | OpenFOAM: The Open Source CFD Toolbox
   \\    /   O peration     | Website:  https://openfoam.org
    \\  /    A nd           | Version:  7
     \\/     M anipulation  |
\*---------------------------------------------------------------------------*/
FoamFile
{
    version     2.0;
    format      ascii;
    class       surfaceScalarField;
    location    "400";
    object      phi;
}
// * * * * * * * * * * * * * * * * * * * * * * * * * * * * * * * * * * * * * //

dimensions      [0 3 -1 0 0 0 0];

internalField   nonuniform List<scalar> 
125460
(
1.45575e-17
1.02411e-16
3.10816e-11
3.05315e-17
1.01574e-16
3.44851e-11
1.60739e-17
1.88787e-16
3.92856e-11
-1.36853e-16
8.83938e-16
3.10817e-11
5.09379e-17
1.49533e-16
3.81993e-11
3.27024e-17
1.95156e-16
4.35875e-11
1.70132e-16
2.41928e-15
3.44852e-11
1.76241e-17
3.34997e-16
4.94312e-11
-1.78815e-16
2.24669e-15
3.92858e-11
1.76441e-16
-8.05134e-16
3.10817e-11
6.96806e-17
1.34537e-16
4.22374e-11
5.71213e-17
2.75379e-16
4.82821e-11
3.14003e-16
1.02475e-15
3.81995e-11
3.54772e-17
3.5993e-16
5.4844e-11
2.58028e-16
5.02616e-15
4.35877e-11
-7.8768e-17
-2.33061e-15
3.44852e-11
1.88184e-17
3.97196e-16
6.18445e-11
-2.14482e-16
3.72236e-15
4.94314e-11
2.32163e-16
-2.04971e-15
3.92857e-11
-1.2605e-16
7.88477e-16
3.10817e-11
9.2337e-17
2.14822e-16
4.66094e-11
7.59901e-17
2.53608e-16
5.3386e-11
5.73143e-16
3.30657e-15
4.22375e-11
6.39366e-17
4.87227e-16
6.0751e-11
3.61203e-16
2.69903e-15
4.82823e-11
-1.70977e-16
-9.29162e-16
3.81994e-11
3.86766e-17
4.48214e-16
6.86166e-11
3.62442e-16
7.83192e-15
5.48443e-11
-1.35083e-16
-4.80216e-15
4.35876e-11
1.32882e-16
2.13484e-15
3.44852e-11
2.02553e-17
5.08262e-16
7.68242e-11
-2.28793e-16
5.43409e-15
6.18448e-11
2.85122e-16
-3.38899e-15
4.94313e-11
-1.65453e-16
1.9889e-15
3.92858e-11
1.74773e-16
-7.08017e-16
3.10816e-11
1.1258e-16
1.86682e-16
5.13199e-11
1.03074e-16
3.86815e-16
5.8912e-11
6.62472e-16
1.08498e-15
4.66096e-11
8.34625e-17
4.78059e-16
6.7173e-11
7.81264e-16
6.94768e-15
5.33862e-11
-3.86191e-16
-3.22694e-15
4.22375e-11
7.06346e-17
5.77314e-16
7.6007e-11
4.28618e-16
4.57494e-15
6.07513e-11
-1.68199e-16
-2.45853e-15
4.82822e-11
2.43971e-16
9.10977e-16
3.81995e-11
4.19747e-17
5.86757e-16
8.52366e-11
4.91001e-16
9.89249e-15
6.8617e-11
-2.00118e-16
-7.44978e-15
5.48442e-11
2.03162e-16
4.42501e-15
4.35877e-11
-3.09489e-17
-2.05328e-15
3.44852e-11
2.20247e-17
5.38013e-16
9.45976e-11
-2.18807e-16
7.08294e-15
7.68246e-11
3.21463e-16
-4.97977e-15
6.18446e-11
-2.00108e-16
3.28333e-15
4.94314e-11
2.27765e-16
-1.80194e-15
3.92857e-11
-5.34764e-17
3.37566e-16
3.10816e-11
1.38021e-16
3.15347e-16
5.63719e-11
1.23003e-16
3.42709e-16
6.48658e-11
8.78516e-16
4.27866e-15
5.13201e-11
1.14955e-16
6.92068e-16
7.41261e-11
7.91927e-16
2.8831e-15
5.89122e-11
-4.39405e-16
-9.77243e-16
4.66095e-11
9.11492e-17
5.87126e-16
8.40417e-11
1.03171e-15
1.09025e-14
6.71733e-11
-5.29972e-16
-6.73558e-15
5.33861e-11
4.53119e-16
2.90596e-15
4.22375e-11
7.73705e-17
7.42082e-16
9.44171e-11
5.19099e-16
6.71722e-15
7.60073e-11
-1.73351e-16
-4.16416e-15
6.07512e-11
2.73017e-16
2.37889e-15
4.82823e-11
-9.38332e-17
-8.20463e-16
3.81994e-11
4.77197e-17
6.3768e-16
1.04956e-10
6.53171e-16
1.16101e-14
8.52371e-11
-2.79044e-16
-9.37285e-15
6.86167e-11
2.86018e-16
6.88305e-15
5.48443e-11
-7.27552e-17
-4.23075e-15
4.35876e-11
5.07162e-17
9.02178e-16
3.44851e-11
2.54926e-17
5.82066e-16
1.15223e-10
-1.51594e-16
8.63227e-15
9.45982e-11
3.38876e-16
-6.51039e-15
7.68243e-11
-2.17169e-16
4.79277e-15
6.18447e-11
2.791e-16
-2.98164e-15
4.94313e-11
-7.07385e-17
8.41991e-16
3.92856e-11
6.7444e-17
-3.3444e-16
3.10816e-11
1.58033e-16
2.44775e-16
6.17566e-11
1.55598e-16
5.55391e-16
7.12513e-11
9.05344e-16
1.17546e-15
5.63721e-11
1.35039e-16
6.55977e-16
8.16175e-11
1.18065e-15
9.05062e-15
6.48661e-11
-6.24257e-16
-4.21004e-15
5.132e-11
1.26359e-16
8.04929e-16
9.27409e-11
9.60062e-16
4.93319e-15
7.41265e-11
-4.89725e-16
-2.61758e-15
5.89121e-11
5.07699e-16
9.53648e-16
4.66096e-11
9.86234e-17
7.94333e-16
1.04398e-10
1.3421e-15
1.38403e-14
8.40421e-11
-6.9992e-16
-1.05308e-14
6.71732e-11
6.17429e-16
6.0927e-15
5.33862e-11
-2.68494e-16
-2.85047e-15
4.22375e-11
8.55399e-17
7.86009e-16
1.16261e-10
6.39345e-16
8.85404e-15
9.44176e-11
-1.85366e-16
-6.15748e-15
7.60071e-11
3.16402e-16
4.01597e-15
6.07513e-11
-7.97312e-17
-2.17121e-15
4.82822e-11
8.78542e-17
3.83468e-16
3.81994e-11
5.61179e-17
6.98732e-16
1.2784e-10
8.31759e-16
1.26511e-14
1.04957e-10
-3.79816e-16
-1.09526e-14
8.52368e-11
3.87287e-16
8.69731e-15
6.86169e-11
-1.20751e-16
-6.56582e-15
5.48441e-11
7.78465e-17
1.86109e-15
4.35875e-11
-3.13549e-17
-9.14645e-16
3.44851e-11
3.09909e-17
5.75451e-16
1.38504e-10
-2.92764e-17
9.8076e-15
1.15224e-10
3.05045e-16
-7.96633e-15
9.45977e-11
-2.14263e-16
6.24035e-15
7.68246e-11
3.16522e-16
-4.38138e-15
6.18445e-11
-8.62662e-17
1.38403e-15
4.94313e-11
8.80244e-17
-8.4943e-16
3.92856e-11
-5.61713e-18
6.46847e-17
3.10815e-11
1.80643e-16
3.88403e-16
6.7456e-11
1.74952e-16
4.37534e-16
7.80573e-11
1.06351e-15
5.37509e-15
6.17568e-11
1.75154e-16
9.99943e-16
8.96521e-11
1.09066e-15
3.09251e-15
7.12516e-11
-6.15545e-16
-1.04346e-15
5.6372e-11
1.46607e-16
7.89165e-16
1.02113e-10
1.54741e-15
1.42946e-14
8.16179e-11
-8.38469e-16
-8.86416e-15
6.48659e-11
6.67104e-16
3.72307e-15
5.132e-11
1.37219e-16
1.0544e-15
1.15204e-10
1.16516e-15
7.36296e-15
9.27413e-11
-5.58883e-16
-4.47721e-15
7.41263e-11
5.9557e-16
2.51381e-15
5.89122e-11
-3.06439e-16
-8.80966e-16
4.66095e-11
1.0896e-16
8.56623e-16
1.28551e-10
1.72098e-15
1.62964e-14
1.04398e-10
-9.08525e-16
-1.33193e-14
8.40418e-11
8.13924e-16
9.54333e-15
6.71733e-11
-3.80516e-16
-5.95616e-15
5.33861e-11
1.63039e-16
1.21857e-15
4.22374e-11
9.56337e-17
8.52601e-16
1.4161e-10
8.3026e-16
1.08547e-14
1.16261e-10
-2.08886e-16
-8.14463e-15
9.44172e-11
3.75187e-16
5.89857e-15
7.60073e-11
-7.03611e-17
-3.67999e-15
6.07511e-11
9.43348e-17
9.90459e-16
4.82821e-11
-7.12987e-17
-3.92836e-16
3.81993e-11
7.03034e-17
7.10325e-16
1.53671e-10
1.03219e-15
1.32298e-14
1.27841e-10
-4.84758e-16
-1.18894e-14
1.04956e-10
5.14592e-16
1.02021e-14
8.52371e-11
-1.79669e-16
-8.26114e-15
6.86167e-11
1.0942e-16
2.88869e-15
5.48441e-11
-5.464e-17
-1.90068e-15
4.35875e-11
1.96526e-17
1.77963e-16
3.44851e-11
4.30064e-17
5.6228e-16
1.63871e-10
1.6217e-16
1.05862e-14
1.38505e-10
2.21622e-16
-9.06552e-15
1.15223e-10
-1.62738e-16
7.60198e-15
9.45981e-11
3.37962e-16
-5.73189e-15
7.68243e-11
-9.4853e-17
2.01823e-15
6.18446e-11
1.07294e-16
-1.40349e-15
4.94312e-11
-7.64574e-18
1.55213e-16
3.92856e-11
2.99776e-17
-9.00974e-17
3.10815e-11
1.94036e-16
2.9579e-16
7.34507e-11
2.03632e-16
6.69982e-16
8.5261e-11
1.00169e-15
1.21006e-15
6.74562e-11
1.94249e-16
8.50079e-16
9.82157e-11
1.42424e-15
1.14281e-14
7.80576e-11
-7.48331e-16
-5.3534e-15
6.17567e-11
1.94073e-16
1.1409e-15
1.12166e-10
1.32704e-15
5.31114e-15
8.96525e-11
-6.98668e-16
-2.77491e-15
7.12515e-11
6.56188e-16
1.01323e-15
5.63721e-11
1.56978e-16
1.09144e-15
1.26847e-10
2.00795e-15
1.82363e-14
1.02114e-10
-1.09499e-15
-1.39575e-14
8.16177e-11
8.96822e-16
7.86506e-15
6.4866e-11
-4.6716e-16
-3.74004e-15
5.13199e-11
1.48863e-16
1.09279e-15
1.41857e-10
1.41539e-15
9.87117e-15
1.15205e-10
-6.38388e-16
-6.74769e-15
9.2741e-11
7.10466e-16
4.28185e-15
7.41265e-11
-3.34668e-16
-2.35615e-15
5.89121e-11
1.70751e-16
3.95312e-16
4.66094e-11
1.22336e-16
9.69185e-16
1.56579e-10
2.14115e-15
1.76618e-14
1.28551e-10
-1.16132e-15
-1.56111e-14
1.04398e-10
1.05618e-15
1.21192e-14
8.40421e-11
-5.12856e-16
-9.3165e-15
6.71731e-11
2.22904e-16
2.54211e-15
5.3386e-11
-1.5928e-16
-1.2672e-15
4.22374e-11
1.1257e-16
8.49422e-16
1.70222e-10
1.10706e-15
1.2417e-14
1.4161e-10
-2.84366e-16
-1.00295e-14
1.16261e-10
4.54352e-16
7.76703e-15
9.44176e-11
-6.49794e-17
-5.44088e-15
7.60071e-11
1.05258e-16
1.66604e-15
6.07511e-11
-7.42014e-17
-1.03351e-15
4.82821e-11
3.08361e-17
7.18978e-17
3.81993e-11
8.87106e-17
6.86671e-16
1.81815e-10
1.25008e-15
1.334e-14
1.53672e-10
-5.99752e-16
-1.23851e-14
1.27841e-10
6.52211e-16
1.11174e-14
1.04957e-10
-2.56567e-16
-9.65708e-15
8.52367e-11
1.4745e-16
3.64776e-15
6.86167e-11
-8.18947e-17
-2.95771e-15
5.4844e-11
2.76558e-17
3.58095e-16
4.35874e-11
2.38131e-17
-2.16464e-16
3.4485e-11
5.49827e-17
5.1317e-16
1.90285e-10
3.95021e-16
1.08539e-14
1.63872e-10
7.36192e-17
-9.80093e-15
1.38504e-10
-6.43492e-17
8.62617e-15
1.15224e-10
3.14935e-16
-7.01648e-15
9.45977e-11
-9.56666e-17
2.62432e-15
7.68243e-11
1.1982e-16
-2.05433e-15
6.18444e-11
-8.99622e-18
2.53391e-16
4.94311e-11
3.82843e-17
-2.28206e-16
3.92855e-11
3.80027e-17
-1.40991e-17
3.10815e-11
2.08605e-16
5.58506e-16
7.97005e-11
2.16348e-16
5.11593e-16
9.28381e-11
1.07006e-15
6.48285e-15
7.34509e-11
2.29445e-16
1.2299e-15
1.0728e-10
1.20182e-15
3.16574e-15
8.52614e-11
-6.76639e-16
-1.14056e-15
6.74561e-11
2.12658e-16
1.00134e-15
1.2288e-10
1.86319e-15
1.81407e-14
9.82162e-11
-1.00307e-15
-1.13442e-14
7.80574e-11
7.58536e-16
4.64027e-15
6.17568e-11
2.11866e-16
1.51167e-15
1.39334e-10
1.60748e-15
7.95263e-15
1.12166e-10
-8.07492e-16
-4.77446e-15
8.96523e-11
7.73985e-16
2.65262e-15
7.12516e-11
-4.64378e-16
-9.72894e-16
5.6372e-11
1.69822e-16
1.15515e-15
1.56193e-10
2.57391e-15
2.16056e-14
1.26848e-10
-1.41604e-15
-1.77625e-14
1.02114e-10
1.17419e-15
1.23967e-14
8.16179e-11
-6.40096e-16
-7.8925e-15
6.48659e-11
2.24715e-16
1.56366e-15
5.13199e-11
1.62369e-16
1.21426e-15
1.72787e-10
1.75554e-15
1.23711e-14
1.41858e-10
-7.32755e-16
-9.08793e-15
1.15204e-10
8.48278e-16
6.40233e-15
9.27413e-11
-3.76434e-16
-4.0286e-15
7.41262e-11
1.94025e-16
1.03038e-15
5.89121e-11
-1.86755e-16
-4.25626e-16
4.66094e-11
1.43549e-16
9.79883e-16
1.88216e-10
2.59435e-15
1.83062e-14
1.5658e-10
-1.43e-15
-1.68458e-14
1.28551e-10
1.3502e-15
1.42586e-14
1.04398e-10
-6.7692e-16
-1.17908e-14
8.40418e-11
2.93861e-16
3.97351e-15
6.71731e-11
-2.19992e-16
-2.66596e-15
5.3386e-11
5.12829e-17
2.42694e-16
4.22373e-11
1.35608e-16
8.23056e-16
2.01397e-10
1.49726e-15
1.34458e-14
1.70223e-10
-4.28922e-16
-1.14964e-14
1.4161e-10
5.88917e-16
9.52182e-15
1.16261e-10
-6.78482e-17
-7.19986e-15
9.44172e-11
1.2044e-16
2.45004e-15
7.60071e-11
-8.12786e-17
-1.74608e-15
6.0751e-11
3.54997e-17
1.77982e-16
4.8282e-11
3.21661e-17
-1.06732e-16
3.81992e-11
1.14697e-16
6.36456e-16
2.11122e-10
1.50288e-15
1.3055e-14
1.81816e-10
-7.21728e-16
-1.24439e-14
1.53671e-10
8.0446e-16
1.16161e-14
1.27841e-10
-3.35942e-16
-1.04863e-14
1.04956e-10
1.94736e-16
4.27468e-15
8.52368e-11
-1.15567e-16
-3.74249e-15
6.86166e-11
3.71365e-17
5.5228e-16
5.4844e-11
2.66648e-17
-4.59857e-16
4.35874e-11
7.35718e-17
-3.26923e-17
3.4485e-11
7.37596e-17
4.47073e-16
2.16209e-10
6.51268e-16
1.06243e-14
1.90287e-10
-1.11007e-16
-1.00496e-14
1.63871e-10
9.3086e-17
9.2978e-15
1.38505e-10
2.48639e-16
-7.99044e-15
1.15223e-10
-7.68801e-17
3.19371e-15
9.45978e-11
1.24542e-16
-2.67832e-15
7.68242e-11
-8.58521e-18
3.68854e-16
6.18444e-11
4.72123e-17
-3.75371e-16
4.94311e-11
4.77704e-17
-3.72166e-17
3.92855e-11
6.86025e-17
-9.98219e-19
3.10814e-11
2.10577e-16
4.05e-16
8.61576e-11
2.46404e-16
9.32752e-16
1.00737e-10
9.21043e-16
1.18248e-15
7.97008e-11
2.42435e-16
1.01811e-15
1.16814e-10
1.43743e-15
1.38365e-14
9.28384e-11
-7.74762e-16
-6.64895e-15
7.34509e-11
2.54754e-16
1.38474e-15
1.3422e-10
1.4554e-15
5.45095e-15
1.0728e-10
-7.65708e-16
-2.9807e-15
8.52612e-11
6.81859e-16
1.08772e-15
6.74562e-11
2.2904e-16
1.4122e-15
1.52643e-10
2.41845e-15
2.32522e-14
1.2288e-10
-1.30979e-15
-1.79676e-14
9.82159e-11
1.01806e-15
9.86892e-15
7.80576e-11
-5.87822e-16
-4.76492e-15
6.17567e-11
2.28756e-16
1.52585e-15
1.71569e-10
1.94073e-15
1.07514e-14
1.39335e-10
-9.26421e-16
-7.24671e-15
1.12166e-10
9.25146e-16
4.53406e-15
8.96525e-11
-5.24587e-16
-2.57336e-15
7.12514e-11
2.13244e-16
4.39989e-16
5.63719e-11
1.85502e-16
1.34668e-15
1.90249e-10
3.21672e-15
2.3448e-14
1.56194e-10
-1.80895e-15
-2.09643e-14
1.26847e-10
1.5218e-15
1.58314e-14
1.02114e-10
-8.47471e-16
-1.24346e-14
8.16176e-11
3.04689e-16
3.28806e-15
6.48659e-11
-2.63546e-16
-1.6488e-15
5.13199e-11
1.82862e-16
1.19029e-15
2.07699e-10
2.20591e-15
1.4462e-14
1.72788e-10
-8.86028e-16
-1.14643e-14
1.41857e-10
1.01455e-15
8.57732e-15
1.15205e-10
-4.24606e-16
-6.0595e-15
9.2741e-11
2.25335e-16
1.75053e-15
7.41262e-11
-2.14375e-16
-1.12888e-15
5.8912e-11
5.82769e-17
7.04908e-17
4.66093e-11
1.69487e-16
9.65334e-16
2.22687e-10
3.05535e-15
1.81808e-14
1.88218e-10
-1.70782e-15
-1.73729e-14
1.56579e-10
1.67093e-15
1.54543e-14
1.28551e-10
-8.77731e-16
-1.38281e-14
1.04398e-10
3.80947e-16
5.04352e-15
8.40418e-11
-2.92307e-16
-4.17828e-15
6.7173e-11
6.84841e-17
4.94039e-16
5.33859e-11
3.2881e-17
-2.97183e-16
4.22373e-11
1.67918e-16
7.63986e-16
2.33861e-10
1.98074e-15
1.38035e-14
2.01399e-10
-6.73038e-16
-1.24705e-14
1.70222e-10
7.92218e-16
1.08814e-14
1.4161e-10
-1.14794e-16
-8.86819e-15
1.16261e-10
1.41569e-16
3.22719e-15
9.44173e-11
-9.27534e-17
-2.56774e-15
7.6007e-11
4.18606e-17
2.97876e-16
6.0751e-11
4.40009e-17
-2.79374e-16
4.8282e-11
1.14551e-16
-1.84587e-17
3.81992e-11
1.47861e-16
5.56055e-16
2.39884e-10
1.79571e-15
1.23987e-14
2.11124e-10
-8.72099e-16
-1.21409e-14
1.81815e-10
9.67254e-16
1.16977e-14
1.53672e-10
-4.23271e-16
-1.09295e-14
1.27841e-10
2.44237e-16
4.65544e-15
1.04957e-10
-1.59029e-16
-4.3937e-15
8.52366e-11
4.85981e-17
6.91138e-16
6.86165e-11
3.0515e-17
-7.19747e-16
5.48439e-11
9.19011e-17
-7.21899e-17
4.35873e-11
1.47835e-16
1.12964e-17
3.44849e-11
9.39638e-17
3.64926e-16
2.3969e-10
9.0571e-16
9.92718e-15
2.1621e-10
-3.1753e-16
-9.82989e-15
1.90285e-10
2.84708e-16
9.51107e-15
1.63872e-10
1.25592e-16
-8.64491e-15
1.38504e-10
-3.9303e-17
3.61823e-15
1.15223e-10
1.08931e-16
-3.27034e-15
9.45976e-11
-6.20915e-18
4.80745e-16
7.68241e-11
5.57129e-17
-5.45971e-16
6.18443e-11
5.96507e-17
-6.33053e-17
4.9431e-11
8.65056e-17
-2.21013e-18
3.92854e-11
1.29777e-16
-1.73133e-17
3.10813e-11
2.10002e-16
6.21715e-16
9.27609e-11
2.53639e-16
6.74269e-16
1.08899e-10
9.56377e-16
7.72907e-15
8.61579e-11
2.90985e-16
1.72594e-15
1.26753e-10
1.09136e-15
3.07926e-15
1.00738e-10
-6.40729e-16
-1.20013e-15
7.97007e-11
2.68769e-16
1.17638e-15
1.46148e-10
1.88495e-15
2.20367e-14
1.16814e-10
-1.04589e-15
-1.41604e-14
9.28383e-11
7.23827e-16
5.65302e-15
7.34509e-11
2.78951e-16
1.8806e-15
1.6673e-10
1.74821e-15
8.19513e-15
1.34221e-10
-8.81155e-16
-5.14259e-15
1.0728e-10
7.97241e-16
2.80555e-15
8.52613e-11
-5.24391e-16
-1.05143e-15
6.74561e-11
2.46573e-16
1.46468e-15
1.87958e-10
3.10422e-15
2.77233e-14
1.52644e-10
-1.69937e-15
-2.30035e-14
1.2288e-10
1.33249e-15
1.56322e-14
9.82161e-11
-8.0179e-16
-1.01279e-14
7.80574e-11
2.56855e-16
1.98222e-15
6.17566e-11
2.46171e-16
1.72116e-15
2.08977e-10
2.37175e-15
1.36424e-14
1.7157e-10
-1.05982e-15
-9.87005e-15
1.39334e-10
1.10002e-15
6.82223e-15
1.12166e-10
-6.05052e-16
-4.41754e-15
8.96522e-11
2.44615e-16
1.12709e-15
7.12514e-11
-2.62027e-16
-4.53553e-16
5.63719e-11
2.09259e-16
1.34171e-15
2.28689e-10
3.91708e-15
2.43255e-14
1.9025e-10
-2.24341e-15
-2.26797e-14
1.56193e-10
1.94773e-15
1.87424e-14
1.26848e-10
-1.10946e-15
-1.58435e-14
1.02114e-10
4.00743e-16
5.17446e-15
8.16176e-11
-3.55164e-16
-3.49777e-15
6.48658e-11
7.59906e-17
3.08869e-16
5.13198e-11
2.09298e-16
1.17819e-15
2.45737e-10
2.80329e-15
1.60062e-14
2.077e-10
-1.12181e-15
-1.34419e-14
1.72787e-10
1.24689e-15
1.07619e-14
1.41858e-10
-4.83376e-16
-8.15157e-15
1.15204e-10
2.62143e-16
2.62672e-15
9.2741e-11
-2.51301e-16
-1.92098e-15
7.41261e-11
6.92045e-17
1.75673e-16
5.89119e-11
4.95557e-17
-1.19461e-16
4.66093e-11
2.07057e-16
9.02021e-16
2.58582e-10
3.53588e-15
1.75067e-14
2.22689e-10
-1.9729e-15
-1.71688e-14
1.88216e-10
2.01044e-15
1.60024e-14
1.5658e-10
-1.09066e-15
-1.49321e-14
1.28551e-10
4.86156e-16
5.92905e-15
1.04398e-10
-3.81808e-16
-5.31172e-15
8.40416e-11
8.90616e-17
7.67554e-16
6.7173e-11
3.75176e-17
-6.37236e-16
5.33859e-11
1.59096e-16
-4.60035e-17
4.22372e-11
2.06663e-16
6.6474e-16
2.65721e-10
2.5323e-15
1.35066e-14
2.33863e-10
-1.00098e-15
-1.28051e-14
2.01397e-10
1.08787e-15
1.17693e-14
1.70223e-10
-2.2163e-16
-1.01711e-14
1.4161e-10
1.83033e-16
3.96045e-15
1.16261e-10
-1.10863e-16
-3.38149e-15
9.44171e-11
5.00129e-17
4.38478e-16
7.60069e-11
5.79168e-17
-4.68869e-16
6.07509e-11
1.44068e-16
-4.92451e-17
4.82819e-11
2.33881e-16
-2.82456e-18
3.81991e-11
1.8299e-16
4.57587e-16
2.65937e-10
2.12227e-15
1.1376e-14
2.39886e-10
-1.05977e-15
-1.14992e-14
2.11122e-10
1.15665e-15
1.1425e-14
1.81816e-10
-5.16554e-16
-1.09887e-14
1.53671e-10
2.97483e-16
4.85869e-15
1.27841e-10
-2.05939e-16
-4.79624e-15
1.04956e-10
6.2624e-17
8.04989e-16
8.52366e-11
3.50566e-17
-9.23886e-16
6.86165e-11
1.14512e-16
-1.15502e-16
5.48438e-11
1.86683e-16
1.9424e-17
4.35872e-11
2.61818e-16
-5.38418e-17
3.44847e-11
1.16436e-16
2.81406e-16
2.58546e-10
1.1393e-15
8.8331e-15
2.39692e-10
-5.23709e-16
-9.1671e-15
2.16209e-10
4.95711e-16
9.28201e-15
1.90287e-10
-3.01804e-17
-8.87218e-15
1.63871e-10
2.20246e-17
3.89339e-15
1.38505e-10
7.33991e-17
-3.71709e-15
1.15223e-10
4.51827e-19
5.84581e-16
9.45976e-11
6.36756e-17
-7.069e-16
7.6824e-11
7.3759e-17
-9.05669e-17
6.18442e-11
1.08716e-16
-3.67108e-18
4.94309e-11
1.64293e-16
-4.71443e-17
3.92852e-11
2.11524e-16
1.80839e-17
3.1081e-11
2.07753e-16
4.68237e-16
9.94343e-11
2.66338e-16
1.00839e-15
1.17245e-10
7.53497e-16
1.03851e-15
9.27612e-11
3.06288e-16
1.35614e-15
1.37022e-10
1.30003e-15
1.65619e-14
1.08899e-10
-6.89718e-16
-7.97007e-15
8.61578e-11
3.40829e-16
1.89891e-15
1.58584e-10
1.30772e-15
5.32407e-15
1.26754e-10
-7.14785e-16
-3.0893e-15
1.00738e-10
5.85598e-16
1.10141e-15
7.97007e-11
2.94347e-16
1.70503e-15
1.81548e-10
2.45698e-15
2.83822e-14
1.46149e-10
-1.37291e-15
-2.25301e-14
1.16814e-10
9.79922e-16
1.2079e-14
9.28384e-11
-5.97738e-16
-5.84498e-15
7.34508e-11
3.02366e-16
1.87069e-15
2.05304e-10
2.08714e-15
1.11594e-14
1.66731e-10
-9.99821e-16
-7.7908e-15
1.3422e-10
9.44615e-16
4.79595e-15
1.0728e-10
-5.93515e-16
-2.74619e-15
8.52611e-11
2.28981e-16
4.93354e-16
6.7456e-11
2.65974e-16
1.75618e-15
2.28939e-10
3.89203e-15
3.01853e-14
1.87959e-10
-2.18158e-15
-2.73657e-14
1.52644e-10
1.73147e-15
2.00828e-14
1.2288e-10
-1.05982e-15
-1.60479e-14
9.82159e-11
3.49281e-16
4.19935e-15
7.80574e-11
-3.0671e-16
-2.05917e-15
6.17565e-11
2.67826e-16
1.64458e-15
2.51202e-10
2.92592e-15
1.62118e-14
2.08979e-10
-1.25285e-15
-1.26598e-14
1.7157e-10
1.30426e-15
9.2249e-15
1.39335e-10
-6.92568e-16
-6.66766e-15
1.12166e-10
2.8577e-16
1.91881e-15
8.96522e-11
-3.04682e-16
-1.19692e-15
7.12513e-11
8.00448e-17
6.723e-17
5.63718e-11
2.37205e-16
1.35794e-15
2.70572e-10
4.62991e-15
2.40665e-14
2.28691e-10
-2.70204e-15
-2.34217e-14
1.90249e-10
2.4258e-15
2.03575e-14
1.56194e-10
-1.43259e-15
-1.87145e-14
1.26847e-10
5.21729e-16
6.60655e-15
1.02114e-10
-4.65359e-16
-5.51654e-15
8.16175e-11
1.00588e-16
6.34561e-16
6.48657e-11
5.77488e-17
-3.91236e-16
5.13197e-11
2.46076e-16
1.09113e-15
2.85348e-10
3.52611e-15
1.67477e-14
2.45739e-10
-1.48262e-15
-1.49273e-14
2.07699e-10
1.56339e-15
1.25735e-14
1.72788e-10
-5.91665e-16
-1.0269e-14
1.41857e-10
3.06444e-16
3.52721e-15
1.15204e-10
-2.95182e-16
-2.86809e-15
9.27409e-11
8.32057e-17
2.97597e-16
7.41261e-11
6.7505e-17
-3.13856e-16
5.89119e-11
2.09881e-16
-2.28296e-17
4.66092e-11
2.50294e-16
7.9515e-16
2.9381e-10
4.03914e-15
1.63703e-14
2.58584e-10
-2.24587e-15
-1.64527e-14
2.22687e-10
2.34639e-15
1.58753e-14
1.88218e-10
-1.3103e-15
-1.54107e-14
1.56579e-10
5.98712e-16
6.42569e-15
1.28551e-10
-4.91069e-16
-6.25036e-15
1.04398e-10
1.14272e-16
9.64174e-16
8.40416e-11
4.38941e-17
-1.00298e-15
6.71729e-11
1.98925e-16
-1.01761e-16
5.33858e-11
3.30071e-16
1.60765e-17
4.22371e-11
2.51339e-16
5.50785e-16
2.9458e-10
3.10541e-15
1.2606e-14
2.65723e-10
-1.39405e-15
-1.25178e-14
2.33861e-10
1.45893e-15
1.20585e-14
2.01399e-10
-4.1619e-16
-1.10392e-14
1.70222e-10
2.50417e-16
4.52641e-15
1.4161e-10
-1.51187e-16
-4.14785e-15
1.16261e-10
6.04307e-17
5.80744e-16
9.4417e-11
7.43047e-17
-6.84991e-16
7.60068e-11
1.80383e-16
-8.46996e-17
6.07508e-11
2.94438e-16
-5.66952e-18
4.82818e-11
4.12526e-16
-1.89633e-17
3.81989e-11
2.1973e-16
3.48895e-16
2.86858e-10
2.45979e-15
1.00189e-14
2.65939e-10
-1.28322e-15
-1.05159e-14
2.39884e-10
1.37772e-15
1.08193e-14
2.11123e-10
-6.35609e-16
-1.07299e-14
1.81815e-10
3.52659e-16
4.88603e-15
1.53671e-10
-2.58725e-16
-5.01877e-15
1.2784e-10
7.77863e-17
8.6966e-16
1.04956e-10
3.97699e-17
-1.0954e-15
8.52365e-11
1.41904e-16
-1.49048e-16
6.86164e-11
2.34673e-16
2.70441e-17
5.48437e-11
3.30232e-16
-1.13374e-16
4.3587e-11
4.56228e-16
5.54869e-17
3.44845e-11
1.31792e-16
1.893e-16
2.7084e-10
1.33473e-15
7.42707e-15
2.58548e-10
-7.12857e-16
-8.12812e-15
2.39691e-10
7.04036e-16
8.63656e-15
2.1621e-10
-2.06162e-16
-8.68653e-15
1.90285e-10
9.65498e-17
3.9737e-15
1.63871e-10
1.21279e-17
-4.01526e-15
1.38504e-10
1.12848e-17
6.61688e-16
1.15223e-10
6.83957e-17
-8.59944e-16
9.45974e-11
9.03174e-17
-1.17632e-16
7.68239e-11
1.36001e-16
-3.2968e-18
6.18441e-11
2.06606e-16
-7.82886e-17
4.94307e-11
2.67252e-16
4.55838e-17
3.92849e-11
3.63647e-16
-2.80984e-18
3.10807e-11
2.13551e-16
6.25652e-16
1.0609e-10
2.69356e-16
7.66493e-16
1.2568e-10
7.4672e-16
8.97303e-15
9.94346e-11
3.35561e-16
1.90827e-15
1.47524e-10
8.65488e-16
2.79613e-15
1.17246e-10
-5.20553e-16
-1.21423e-15
9.27611e-11
3.68098e-16
1.52089e-15
1.71432e-10
1.71825e-15
2.64381e-14
1.37023e-10
-9.5009e-16
-1.70178e-14
1.08899e-10
6.20416e-16
6.83542e-15
8.61579e-11
3.96215e-16
2.6069e-15
1.96995e-10
1.54812e-15
8.04237e-15
1.58584e-10
-8.11188e-16
-5.34065e-15
1.26753e-10
6.67842e-16
2.82499e-15
1.00738e-10
-4.53518e-16
-1.0471e-15
7.97006e-11
3.24328e-16
1.74273e-15
2.23549e-10
3.16956e-15
3.40253e-14
1.81549e-10
-1.79384e-15
-2.89968e-14
1.46148e-10
1.29042e-15
1.92028e-14
1.16814e-10
-8.22839e-16
-1.24933e-14
9.28382e-11
2.55209e-16
2.42915e-15
7.34507e-11
3.27062e-16
2.16847e-15
2.50067e-10
2.51357e-15
1.43218e-14
2.05305e-10
-1.12417e-15
-1.06731e-14
1.66731e-10
1.10769e-15
7.2121e-15
1.34221e-10
-6.84182e-16
-4.72564e-15
1.0728e-10
2.61832e-16
1.24117e-15
8.52611e-11
-2.65247e-16
-4.7209e-16
6.74559e-11
2.91788e-16
1.71986e-15
2.75197e-10
4.7547e-15
3.14461e-14
2.28941e-10
-2.7274e-15
-2.97491e-14
1.87958e-10
2.22504e-15
2.3936e-14
1.52644e-10
-1.38989e-15
-2.05774e-14
1.2288e-10
4.60787e-16
6.64647e-15
9.82159e-11
-4.12233e-16
-4.39497e-15
7.80573e-11
9.76113e-17
3.84927e-16
6.17565e-11
2.93243e-16
1.65762e-15
2.97208e-10
3.64794e-15
1.82756e-14
2.51204e-10
-1.53561e-15
-1.51389e-14
2.08978e-10
1.57559e-15
1.17486e-14
1.7157e-10
-7.90958e-16
-9.04507e-15
1.39334e-10
3.3189e-16
2.8806e-15
1.12166e-10
-3.59659e-16
-2.04543e-15
8.96521e-11
9.55416e-17
1.69172e-16
7.12512e-11
8.55374e-17
-1.37167e-16
5.63718e-11
2.76403e-16
1.26394e-15
3.14186e-10
5.34562e-15
2.30628e-14
2.70574e-10
-3.14554e-15
-2.30784e-14
2.28689e-10
2.93885e-15
2.11033e-14
1.9025e-10
-1.79032e-15
-2.02678e-14
1.56193e-10
6.70635e-16
7.81885e-15
1.26847e-10
-6.03509e-16
-7.0528e-15
1.02113e-10
1.30289e-16
9.92192e-16
8.16174e-11
6.81686e-17
-8.41738e-16
6.48656e-11
2.6422e-16
-6.03465e-17
5.13197e-11
2.87599e-16
9.61583e-16
3.24223e-10
4.34498e-15
1.66622e-14
2.85351e-10
-1.95648e-15
-1.56338e-14
2.45738e-10
1.99607e-15
1.3913e-14
2.077e-10
-7.71094e-16
-1.20306e-14
1.72787e-10
3.74157e-16
4.44024e-15
1.41857e-10
-3.48248e-16
-3.83254e-15
1.15204e-10
9.99748e-17
4.50003e-16
9.27408e-11
8.91274e-17
-5.2962e-16
7.4126e-11
2.63646e-16
-6.00798e-17
5.89118e-11
4.34611e-16
-5.59247e-18
4.66091e-11
2.98343e-16
6.62044e-16
3.2572e-10
4.57082e-15
1.48461e-14
2.93813e-10
-2.5388e-15
-1.53182e-14
2.58582e-10
2.69084e-15
1.52578e-14
2.22689e-10
-1.51854e-15
-1.52412e-14
1.88216e-10
7.15233e-16
6.64949e-15
1.5658e-10
-6.09596e-16
-6.78029e-15
1.28551e-10
1.44636e-16
1.12528e-15
1.04398e-10
5.13627e-17
-1.29186e-15
8.40415e-11
2.48084e-16
-1.63637e-16
6.71728e-11
4.16334e-16
2.94715e-17
5.33857e-11
5.76616e-16
-7.34835e-17
4.22369e-11
2.95038e-16
4.18403e-16
3.17754e-10
3.65544e-15
1.12064e-14
2.94582e-10
-1.81604e-15
-1.16623e-14
2.65721e-10
1.88446e-15
1.17651e-14
2.33863e-10
-6.86147e-16
-1.13435e-14
2.01397e-10
3.53575e-16
4.89516e-15
1.70223e-10
-2.20459e-16
-4.74089e-15
1.4161e-10
7.61133e-17
7.14582e-16
1.16261e-10
9.30478e-17
-8.94811e-16
9.44169e-11
2.24432e-16
-1.20432e-16
7.60067e-11
3.69342e-16
-9.22605e-18
6.07507e-11
5.22849e-16
-5.47682e-17
4.82816e-11
7.22272e-16
2.13246e-17
3.81987e-11
2.47935e-16
2.33869e-16
3.00498e-10
2.77216e-15
8.38474e-15
2.8686e-10
-1.53012e-15
-9.22236e-15
2.65937e-10
1.62648e-15
9.88542e-15
2.39886e-10
-7.8954e-16
-1.01723e-14
2.11122e-10
4.16955e-16
4.76337e-15
1.81815e-10
-3.16464e-16
-5.06286e-15
1.53671e-10
9.42265e-17
9.01039e-16
1.2784e-10
4.6177e-17
-1.21175e-15
1.04956e-10
1.74561e-16
-1.78947e-16
8.52364e-11
2.93241e-16
2.90202e-17
6.86162e-11
4.14966e-16
-1.75636e-16
5.48435e-11
5.77748e-16
1.13233e-16
4.35867e-11
7.56789e-16
-2.72872e-17
3.44841e-11
1.41461e-16
9.60642e-17
2.75112e-10
1.48597e-15
5.82711e-15
2.70843e-10
-8.71225e-16
-6.78736e-15
2.58546e-10
8.93894e-16
7.63828e-15
2.39692e-10
-3.83354e-16
-8.10946e-15
2.16209e-10
1.78426e-16
3.8674e-15
1.90286e-10
-6.43338e-17
-4.11484e-15
1.63871e-10
2.71214e-17
7.09848e-16
1.38504e-10
6.98661e-17
-9.74371e-16
1.15223e-10
1.09127e-16
-1.41765e-16
9.45973e-11
1.6901e-16
-2.53216e-18
7.68237e-11
2.57698e-16
-1.16478e-16
6.18438e-11
3.36531e-16
7.5369e-17
4.94303e-11
4.59301e-16
-1.22023e-17
3.92844e-11
5.66408e-16
-7.66606e-17
3.10802e-11
2.36867e-16
4.03396e-16
1.12627e-10
2.81741e-16
1.01974e-15
1.34092e-10
5.26153e-16
1.05378e-15
1.0609e-10
3.46302e-16
1.55239e-15
1.58137e-10
1.03386e-15
1.92602e-14
1.25681e-10
-5.44143e-16
-9.27307e-15
9.94345e-11
4.19887e-16
2.06312e-15
1.84571e-10
1.00913e-15
4.85262e-15
1.47525e-10
-5.59633e-16
-3.1043e-15
1.17245e-10
4.58398e-16
1.12478e-15
9.27612e-11
4.39506e-16
2.22114e-15
2.12955e-10
2.25997e-15
3.41854e-14
1.71433e-10
-1.26446e-15
-2.71701e-14
1.37023e-10
8.55494e-16
1.46692e-14
1.08899e-10
-4.55785e-16
-6.90152e-15
8.61577e-11
4.56799e-16
2.52461e-15
2.4257e-10
1.81655e-15
1.10366e-14
1.96996e-10
-8.99765e-16
-8.07698e-15
1.58584e-10
7.7416e-16
4.84284e-15
1.26754e-10
-4.98484e-16
-2.72041e-15
1.00738e-10
2.0573e-16
5.12683e-16
7.97005e-11
3.59549e-16
2.16105e-15
2.7229e-10
3.99739e-15
3.72377e-14
2.2355e-10
-2.32011e-15
-3.47301e-14
1.81548e-10
1.69028e-15
2.47974e-14
1.46149e-10
-1.09468e-15
-1.98721e-14
1.16814e-10
3.506e-16
5.17711e-15
9.28382e-11
-2.7831e-16
-2.5036e-15
7.34507e-11
3.56579e-16
2.04559e-15
3.00594e-10
3.05668e-15
1.72717e-14
2.50069e-10
-1.29643e-15
-1.37974e-14
2.05304e-10
1.29028e-15
9.79253e-15
1.66731e-10
-7.76631e-16
-7.13431e-15
1.3422e-10
3.04448e-16
2.11023e-15
1.0728e-10
-3.04657e-16
-1.23386e-15
8.5261e-11
1.03026e-16
7.49281e-17
6.74559e-11
3.20981e-16
1.7898e-15
3.25597e-10
5.62987e-15
3.11055e-14
2.75199e-10
-3.31239e-15
-3.0908e-14
2.28939e-10
2.78872e-15
2.61178e-14
1.87959e-10
-1.80031e-15
-2.44959e-14
1.52643e-10
6.03366e-16
8.53539e-15
1.2288e-10
-5.39601e-16
-6.96503e-15
9.82157e-11
1.2784e-16
7.99711e-16
7.80572e-11
1.04993e-16
-5.01263e-16
6.17564e-11
3.25913e-16
1.51094e-15
3.45115e-10
4.51952e-15
1.9512e-14
2.9721e-10
-1.9624e-15
-1.71872e-14
2.51202e-10
1.93764e-15
1.39674e-14
2.08979e-10
-9.39173e-16
-1.15487e-14
1.71569e-10
3.85088e-16
3.89423e-15
1.39334e-10
-4.219e-16
-3.07542e-15
1.12166e-10
1.15171e-16
2.88097e-16
8.9652e-11
1.13802e-16
-3.54268e-16
7.12512e-11
3.25055e-16
-2.43119e-17
5.63717e-11
3.18032e-16
1.1333e-15
3.5699e-10
6.05126e-15
2.14375e-14
3.14189e-10
-3.57608e-15
-2.20107e-14
2.70572e-10
3.4484e-15
2.08728e-14
2.28691e-10
-2.16728e-15
-2.09479e-14
1.90249e-10
8.36734e-16
8.4946e-15
1.56194e-10
-7.72772e-16
-8.34828e-15
1.26847e-10
1.67233e-16
1.25402e-15
1.02113e-10
8.18005e-17
-1.33265e-15
8.16173e-11
3.30856e-16
-1.34761e-16
6.48655e-11
5.49868e-16
2.05872e-17
5.13195e-11
3.35921e-16
8.01606e-16
3.59436e-10
5.19086e-15
1.57586e-14
3.24225e-10
-2.5259e-15
-1.5556e-14
2.85348e-10
2.52873e-15
1.45359e-14
2.45739e-10
-1.06019e-15
-1.335e-14
2.07699e-10
4.73503e-16
5.19773e-15
1.72787e-10
-4.27102e-16
-4.79845e-15
1.41857e-10
1.20139e-16
6.11253e-16
1.15204e-10
1.15742e-16
-7.82986e-16
9.27407e-11
3.29902e-16
-1.03506e-16
7.41259e-11
5.47254e-16
-1.18652e-17
5.89116e-11
7.61881e-16
-1.8669e-17
4.66089e-11
3.448e-16
5.01651e-16
3.51343e-10
5.10597e-15
1.29828e-14
3.25723e-10
-2.87145e-15
-1.38318e-14
2.93811e-10
3.04865e-15
1.42298e-14
2.58584e-10
-1.73508e-15
-1.46166e-14
2.22687e-10
8.26855e-16
6.59388e-15
1.88217e-10
-7.34657e-16
-7.02217e-15
1.56579e-10
1.77939e-16
1.2073e-15
1.2855e-10
5.98987e-17
-1.53352e-15
1.04398e-10
3.07745e-16
-2.11497e-16
8.40414e-11
5.22933e-16
4.20565e-17
6.71726e-11
7.28233e-16
-1.56403e-16
5.33854e-11
1.01818e-15
7.66328e-17
4.22366e-11
3.28572e-16
2.77829e-16
3.32863e-10
4.13682e-15
9.43254e-15
3.17756e-10
-2.23182e-15
-1.03328e-14
2.9458e-10
2.32715e-15
1.09372e-14
2.65723e-10
-1.01644e-15
-1.10976e-14
2.33861e-10
4.8602e-16
5.01089e-15
2.01398e-10
-3.2996e-16
-5.1305e-15
1.70222e-10
9.81606e-17
8.18286e-16
1.4161e-10
1.11076e-16
-1.0924e-15
1.1626e-10
2.77113e-16
-1.56796e-16
9.44168e-11
4.60765e-16
-9.68817e-18
7.60065e-11
6.59122e-16
-9.33823e-17
6.07504e-11
9.12195e-16
5.58229e-17
4.82812e-11
1.19444e-15
-2.75589e-20
3.81982e-11
2.63167e-16
1.14949e-16
3.05238e-10
3.02591e-15
6.56535e-15
3.00501e-10
-1.7712e-15
-7.67153e-15
2.86858e-10
1.88649e-15
8.65322e-15
2.65939e-10
-9.7793e-16
-9.31192e-15
2.39884e-10
4.93146e-16
4.49999e-15
2.11123e-10
-3.86954e-16
-4.95319e-15
1.81815e-10
1.11396e-16
8.98799e-16
1.53671e-10
5.37877e-17
-1.28009e-15
1.2784e-10
2.13094e-16
-1.98127e-16
1.04956e-10
3.63749e-16
2.82291e-17
8.52362e-11
5.18697e-16
-2.21464e-16
6.86159e-11
7.27951e-16
1.74877e-16
5.48431e-11
9.55156e-16
-5.59821e-17
4.35862e-11
1.2033e-15
-5.85335e-17
3.44836e-11
1.41868e-16
5.73125e-18
2.7084e-10
1.57793e-15
4.14409e-15
2.75114e-10
-1.00408e-15
-5.27464e-15
2.70841e-10
1.05101e-15
6.36123e-15
2.58548e-10
-5.47261e-16
-7.19878e-15
2.39691e-10
2.58836e-16