/*--------------------------------*- C++ -*----------------------------------*\
  =========                 |
  \\      /  F ield         | OpenFOAM: The Open Source CFD Toolbox
   \\    /   O peration     | Website:  https://openfoam.org
    \\  /    A nd           | Version:  7
     \\/     M anipulation  |
\*---------------------------------------------------------------------------*/
FoamFile
{
    version     2.0;
    format      ascii;
    class       volVectorField;
    location    "400";
    object      U;
}
// * * * * * * * * * * * * * * * * * * * * * * * * * * * * * * * * * * * * * //

dimensions      [0 1 -1 0 0 0 0];

internalField   nonuniform List<vector> 
43305
(
(0.625001 2.38682e-09 1.35349e-09)
(0.625001 6.70024e-09 1.18196e-09)
(0.625001 2.15723e-09 5.53975e-09)
(0.625006 -1.04732e-07 1.60194e-08)
(0.625001 1.27614e-08 1.60899e-09)
(0.625001 5.64992e-09 5.03878e-09)
(0.625006 3.57819e-08 4.1148e-08)
(0.625001 1.92651e-09 9.35603e-09)
(0.625006 -9.75485e-08 5.63501e-08)
(0.625005 1.14866e-07 -1.52971e-08)
(0.625001 1.86224e-08 1.27115e-09)
(0.625001 1.11818e-08 6.57541e-09)
(0.625006 5.80915e-08 1.50601e-08)
(0.625001 4.82409e-09 8.88741e-09)
(0.625006 3.76281e-08 1.25891e-07)
(0.625005 -1.63216e-08 -4.14341e-08)
(0.625001 1.66718e-09 1.33176e-08)
(0.625006 -8.8026e-08 1.09469e-07)
(0.625005 1.07793e-07 -5.33573e-08)
(0.625005 -1.01616e-07 1.5746e-08)
(0.625001 2.51668e-08 1.89357e-09)
(0.625001 1.62317e-08 5.39592e-09)
(0.625006 1.6286e-07 4.58028e-08)
(0.625001 9.87774e-09 1.10828e-08)
(0.625006 5.98222e-08 5.41444e-08)
(0.625005 -2.02102e-08 -1.43301e-08)
(0.625001 4.13888e-09 1.32072e-08)
(0.625006 3.95096e-08 2.15796e-07)
(0.625005 -1.67709e-08 -1.25542e-07)
(0.625005 3.09573e-08 3.99188e-08)
(0.625001 1.44462e-09 1.62379e-08)
(0.625006 -7.43493e-08 1.68388e-07)
(0.625005 9.82312e-08 -1.03679e-07)
(0.625005 -9.47799e-08 5.48892e-08)
(0.625006 1.18113e-07 -1.51494e-08)
(0.625001 3.17021e-08 1.44817e-09)
(0.625001 2.20497e-08 7.65754e-09)
(0.625006 1.81043e-07 1.29543e-08)
(0.625001 1.42621e-08 9.53953e-09)
(0.625006 1.64574e-07 1.41251e-07)
(0.625005 -1.14994e-07 -4.66857e-08)
(0.625001 8.7103e-09 1.57527e-08)
(0.625006 6.17015e-08 1.0828e-07)
(0.625005 -1.95295e-08 -5.11124e-08)
(0.625005 4.77624e-08 1.47618e-08)
(0.625001 3.59793e-09 1.67373e-08)
(0.625006 4.19538e-08 2.97525e-07)
(0.625005 -1.75074e-08 -2.13925e-07)
(0.625005 3.22092e-08 1.21679e-07)
(0.625006 -5.44078e-09 -4.11824e-08)
(0.625001 1.25839e-09 1.88525e-08)
(0.625006 -5.83822e-08 2.30526e-07)
(0.625005 8.43608e-08 -1.59892e-07)
(0.625005 -8.56943e-08 1.06087e-07)
(0.625006 1.10856e-07 -5.29482e-08)
(0.625004 -4.93602e-08 7.85239e-09)
(0.625001 3.8813e-08 2.29312e-09)
(0.625001 2.75927e-08 6.08387e-09)
(0.625006 2.62748e-07 4.86724e-08)
(0.625001 1.94575e-08 1.28361e-08)
(0.625006 1.82938e-07 4.7144e-08)
(0.625005 -1.18685e-07 -1.22302e-08)
(0.625001 1.24971e-08 1.42181e-08)
(0.625006 1.66071e-07 2.44398e-07)
(0.625005 -1.13164e-07 -1.42821e-07)
(0.625005 1.42704e-07 4.42557e-08)
(0.625001 7.67287e-09 1.92502e-08)
(0.625006 6.43498e-08 1.69051e-07)
(0.625005 -1.94972e-08 -1.02465e-07)
(0.625005 4.8524e-08 5.25277e-08)
(0.625006 -1.98266e-09 -1.42531e-08)
(0.625001 3.29856e-09 1.98911e-08)
(0.625006 4.47136e-08 3.58013e-07)
(0.625005 -1.88779e-08 -2.93652e-07)
(0.625005 3.35609e-08 2.08182e-07)
(0.625006 -6.39812e-09 -1.24824e-07)
(0.625004 1.45048e-08 1.95844e-08)
(0.625001 1.16447e-09 1.99998e-08)
(0.625006 -4.05429e-08 2.89114e-07)
(0.625005 6.81048e-08 -2.19978e-07)
(0.625005 -7.2631e-08 1.62876e-07)
(0.625006 1.01158e-07 -1.02899e-07)
(0.625004 -4.6089e-08 2.70757e-08)
(0.625004 5.87593e-08 -8.50122e-09)
(0.625001 4.61033e-08 1.56386e-09)
(0.625001 3.41738e-08 9.19965e-09)
(0.625006 2.70287e-07 1.15899e-08)
(0.625001 2.41778e-08 1.07006e-08)
(0.625006 2.65384e-07 1.50879e-07)
(0.625005 -1.961e-07 -4.99936e-08)
(0.625001 1.70805e-08 1.81748e-08)
(0.625006 1.84442e-07 9.50976e-08)
(0.625005 -1.16167e-07 -4.42865e-08)
(0.625005 1.53394e-07 1.25646e-08)
(0.625001 1.09383e-08 1.81997e-08)
(0.625006 1.67692e-07 3.39197e-07)
(0.625005 -1.11751e-07 -2.45935e-07)
(0.625005 1.43062e-07 1.35982e-07)
(0.625006 -8.99986e-08 -4.65423e-08)
(0.625001 6.96126e-09 2.24082e-08)
(0.625006 6.82286e-08 2.33321e-07)
(0.625005 -2.04536e-08 -1.60542e-07)
(0.625005 4.95437e-08 1.04449e-07)
(0.625006 -2.17625e-09 -5.09436e-08)
(0.625004 1.94913e-08 7.23554e-09)
(0.625001 3.21822e-09 2.15272e-08)
(0.625006 4.80425e-08 4.01782e-07)
(0.625005 -2.06534e-08 -3.51854e-07)
(0.625005 3.54448e-08 2.86811e-07)
(0.625006 -7.58502e-09 -2.12737e-07)
(0.625004 1.48082e-08 5.94713e-08)
(0.625004 -8.1994e-09 -2.17516e-08)
(0.625001 1.14226e-09 2.06759e-08)
(0.625006 -2.35614e-08 3.38857e-07)
(0.625005 4.98979e-08 -2.76899e-07)
(0.625005 -5.73783e-08 2.22868e-07)
(0.625006 8.71856e-08 -1.58752e-07)
(0.625004 -4.17174e-08 5.19562e-08)
(0.625004 5.50079e-08 -2.9712e-08)
(0.625003 -1.08957e-08 1.82642e-09)
(0.625001 5.24553e-08 2.31782e-09)
(0.625001 4.07322e-08 6.54871e-09)
(0.625006 3.28991e-07 5.07069e-08)
(0.625001 3.02737e-08 1.52924e-08)
(0.625006 2.72578e-07 4.19664e-08)
(0.625005 -1.89771e-07 -1.0735e-08)
(0.625001 2.10445e-08 1.58941e-08)
(0.625006 2.67684e-07 2.62825e-07)
(0.625005 -1.93334e-07 -1.53967e-07)
(0.625005 2.22061e-07 4.66023e-08)
(0.625001 1.49326e-08 2.22043e-08)
(0.625006 1.86081e-07 1.50465e-07)
(0.625005 -1.14043e-07 -8.96918e-08)
(0.625005 1.53643e-07 4.52284e-08)
(0.625006 -8.89219e-08 -1.24265e-08)
(0.625001 9.82226e-09 2.19102e-08)
(0.625006 1.69256e-07 4.10012e-07)
(0.625005 -1.10643e-07 -3.40022e-07)
(0.625005 1.43381e-07 2.34844e-07)
(0.625006 -8.93096e-08 -1.42451e-07)
(0.625004 6.13524e-08 2.15419e-08)
(0.625001 6.50255e-09 2.3811e-08)
(0.625006 7.38201e-08 2.95106e-07)
(0.625005 -2.29107e-08 -2.22774e-07)
(0.625005 5.12909e-08 1.62764e-07)
(0.625006 -2.92242e-09 -1.02156e-07)
(0.625004 1.94041e-08 2.54729e-08)
(0.625004 -1.17796e-08 -8.10692e-09)
(0.625001 3.38573e-09 2.27106e-08)
(0.625006 5.16917e-08 4.26506e-07)
(0.625005 -2.31501e-08 -3.9323e-07)
(0.625005 3.76276e-08 3.45119e-07)
(0.625006 -9.40084e-09 -2.92082e-07)
(0.625004 1.51758e-08 1.01403e-07)
(0.625004 -8.81617e-09 -6.63744e-08)
(0.625003 7.53784e-09 4.70612e-09)
(0.625001 1.31713e-09 2.02375e-08)
(0.625006 -8.23848e-09 3.73768e-07)
(0.625005 3.2534e-08 -3.25444e-07)
(0.625005 -4.03385e-08 2.79311e-07)
(0.625006 7.08484e-08 -2.18492e-07)
(0.625004 -3.54244e-08 7.95473e-08)
(0.625004 5.0007e-08 -5.76342e-08)
(0.625003 -1.00158e-08 6.18107e-09)
(0.625003 2.04488e-08 -2.84474e-09)
(0.625001 5.86968e-08 1.54708e-09)
(0.625001 4.64266e-08 9.38183e-09)
(0.625006 3.1708e-07 1.00085e-08)
(0.625001 3.61757e-08 1.14485e-08)
(0.625006 3.31999e-07 1.57859e-07)
(0.625005 -2.4304e-07 -5.26731e-08)
(0.625001 2.66074e-08 2.15168e-08)
(0.625006 2.7424e-07 8.44467e-08)
(0.625005 -1.8617e-07 -3.8906e-08)
(0.625005 2.18614e-07 1.10332e-08)
(0.625001 1.82209e-08 2.03568e-08)
(0.625006 2.70195e-07 3.66971e-07)
(0.625005 -1.91141e-07 -2.67256e-07)
(0.625005 2.22598e-07 1.43869e-07)
(0.625006 -1.64107e-07 -5.01377e-08)
(0.625001 1.32687e-08 2.58291e-08)
(0.625006 1.88151e-07 2.11253e-07)
(0.625005 -1.12283e-07 -1.42661e-07)
(0.625005 1.537e-07 9.07154e-08)
(0.625006 -8.78593e-08 -4.50306e-08)
(0.625004 6.05281e-08 6.05062e-09)
(0.625001 9.04938e-09 2.39945e-08)
(0.625006 1.70628e-07 4.59727e-07)
(0.625005 -1.09729e-07 -4.09269e-07)
(0.625005 1.43814e-07 3.25674e-07)
(0.625006 -8.89301e-08 -2.45485e-07)
(0.625004 6.08776e-08 6.59409e-08)
(0.625004 -6.28305e-08 -2.45494e-08)
(0.625001 6.50644e-09 2.47497e-08)
(0.625006 8.10376e-08 3.47986e-07)
(0.625005 -2.74669e-08 -2.82924e-07)
(0.625005 5.42194e-08 2.24586e-07)
(0.625006 -4.65241e-09 -1.60099e-07)
(0.625004 1.94793e-08 5.03182e-08)
(0.625004 -1.21361e-08 -2.89217e-08)
(0.625003 1.00552e-08 1.64043e-09)
(0.625001 3.7944e-09 2.24345e-08)
(0.625006 5.59848e-08 4.36617e-07)
(0.625005 -2.61737e-08 -4.15807e-07)
(0.625005 4.03598e-08 3.87228e-07)
(0.625006 -1.16179e-08 -3.50043e-07)
(0.625004 1.5774e-08 1.39493e-07)
(0.625004 -9.54368e-09 -1.13727e-07)
(0.625003 7.59416e-09 1.40986e-08)
(0.625003 1.04068e-08 -6.38348e-09)
(0.625001 1.42285e-09 1.91323e-08)
(0.625006 3.79718e-09 3.92233e-07)
(0.625005 1.68256e-08 -3.59528e-07)
(0.625005 -2.41188e-08 3.27092e-07)
(0.625006 5.2582e-08 -2.75177e-07)
(0.625004 -2.80866e-08 1.0873e-07)
(0.625004 4.28203e-08 -8.86603e-08)
(0.625003 -8.88042e-09 1.16056e-08)
(0.625003 1.93224e-08 -9.93722e-09)
(0.625002 1.38071e-08 -4.80576e-10)
(0.625002 6.24884e-08 2.76074e-09)
(0.625001 5.18203e-08 6.55913e-09)
(0.625006 3.4438e-07 5.13581e-08)
(0.625001 4.13229e-08 1.55745e-08)
(0.625006 3.19145e-07 3.59592e-08)
(0.625005 -2.2044e-07 -9.76876e-09)
(0.625001 3.18253e-08 1.69416e-08)
(0.625006 3.34526e-07 2.76403e-07)
(0.625005 -2.39709e-07 -1.63161e-07)
(0.625005 2.61311e-07 4.82184e-08)
(0.625001 2.3218e-08 2.61699e-08)
(0.625006 2.75802e-07 1.34027e-07)
(0.625005 -1.8297e-07 -7.87766e-08)
(0.625005 2.18595e-07 3.9544e-08)
(0.625006 -1.58232e-07 -1.12871e-08)
(0.625001 1.60138e-08 2.45529e-08)
(0.625006 2.72687e-07 4.46185e-07)
(0.625005 -1.89381e-07 -3.72092e-07)
(0.625005 2.23093e-07 2.50237e-07)
(0.625006 -1.62999e-07 -1.54532e-07)
(0.625004 8.79577e-08 2.26998e-08)
(0.625001 1.20312e-08 2.74455e-08)
(0.625006 1.90991e-07 2.726e-07)
(0.625005 -1.11294e-07 -2.01761e-07)
(0.625005 1.53835e-07 1.43346e-07)
(0.625006 -8.7045e-08 -9.11072e-08)
(0.625004 5.99594e-08 2.15923e-08)
(0.625004 -6.75046e-08 -7.14958e-09)
(0.625001 8.86716e-09 2.56784e-08)
(0.625006 1.71708e-07 4.84274e-07)
(0.625005 -1.09029e-07 -4.56801e-07)
(0.625005 1.44198e-07 3.936e-07)
(0.625006 -8.88801e-08 -3.39588e-07)
(0.625004 6.04604e-08 1.13481e-07)
(0.625004 -6.27639e-08 -7.55333e-08)
(0.625003 2.28187e-08 5.21538e-09)
(0.625001 6.72561e-09 2.421e-08)
(0.625006 8.97899e-08 3.85807e-07)
(0.625005 -3.41028e-08 -3.34697e-07)
(0.625005 5.88009e-08 2.83924e-07)
(0.625006 -7.88156e-09 -2.22197e-07)
(0.625004 1.98824e-08 7.83169e-08)
(0.625004 -1.2733e-08 -5.77278e-08)
(0.625003 1.00403e-08 5.67584e-09)
(0.625003 1.81974e-08 -2.74138e-09)
(0.625001 4.26074e-09 2.12058e-08)
(0.625006 6.06374e-08 4.32928e-07)
(0.625005 -3.00678e-08 -4.24083e-07)
(0.625005 4.34251e-08 4.10912e-07)
(0.625006 -1.45389e-08 -3.91341e-07)
(0.625004 1.64903e-08 1.67725e-07)
(0.625004 -1.06208e-08 -1.56826e-07)
(0.625003 7.65944e-09 2.3666e-08)
(0.625003 1.01679e-08 -1.97241e-08)
(0.625002 3.40769e-08 -1.08272e-09)
(0.625001 1.66674e-09 1.70307e-08)
(0.625006 1.26492e-08 3.92053e-07)
(0.625005 4.53093e-09 -3.77616e-07)
(0.625005 -9.49478e-09 3.60309e-07)
(0.625006 3.51577e-08 -3.23602e-07)
(0.625004 -1.99022e-08 1.36114e-07)
(0.625004 3.44231e-08 -1.21556e-07)
(0.625003 -7.29315e-09 1.76861e-08)
(0.625003 1.7879e-08 -1.92005e-08)
(0.625002 1.35774e-08 -1.8013e-09)
(0.625001 2.26917e-08 -2.23703e-11)
(0.625001 6.55793e-08 1.76795e-09)
(0.625001 5.67012e-08 1.12667e-08)
(0.625006 3.02283e-07 8.22321e-09)
(0.625001 4.60472e-08 1.1404e-08)
(0.625006 3.46536e-07 1.60336e-07)
(0.625005 -2.54815e-07 -5.48341e-08)
(0.625001 3.64564e-08 2.19715e-08)
(0.625006 3.20446e-07 7.23008e-08)
(0.625005 -2.1644e-07 -3.51909e-08)
(0.625005 2.39424e-07 9.90863e-09)
(0.625001 2.77523e-08 2.16773e-08)
(0.625006 3.37192e-07 3.87898e-07)
(0.625005 -2.37056e-07 -2.8496e-07)
(0.625005 2.61506e-07 1.49449e-07)
(0.625006 -2.14337e-07 -5.29593e-08)
(0.625001 2.0396e-08 3.02436e-08)
(0.625006 2.77467e-07 1.89285e-07)
(0.625005 -1.79967e-07 -1.26091e-07)
(0.625005 2.18284e-07 7.92232e-08)
(0.625006 -1.56701e-07 -4.08428e-08)
(0.625004 8.17809e-08 5.54289e-09)
(0.625001 1.43554e-08 2.70273e-08)
(0.625006 2.74926e-07 5.02298e-07)
(0.625005 -1.8791e-07 -4.50964e-07)
(0.625005 2.23803e-07 3.49198e-07)
(0.625006 -1.62292e-07 -2.68619e-07)
(0.625004 8.75211e-08 6.98913e-08)
(0.625004 -1.10514e-07 -2.62589e-08)
(0.625001 1.14653e-08 2.86784e-08)
(0.625006 1.94745e-07 3.28738e-07)
(0.625005 -1.11652e-07 -2.61857e-07)
(0.625005 1.54365e-07 2.01385e-07)
(0.625006 -8.66068e-08 -1.44726e-07)
(0.625004 5.94052e-08 4.30355e-08)
(0.625004 -6.73224e-08 -2.57634e-08)
(0.625003 2.50987e-08 1.30134e-09)
(0.625001 8.95113e-09 2.54905e-08)
(0.625006 1.72697e-07 4.89617e-07)
(0.625005 -1.08591e-07 -4.78909e-07)
(0.625005 1.4442e-07 4.41165e-07)
(0.625006 -8.90466e-08 -4.09001e-07)
(0.625004 6.01076e-08 1.5715e-07)
(0.625004 -6.27772e-08 -1.3071e-07)
(0.625003 2.2724e-08 1.57889e-08)
(0.625003 1.43975e-08 -7.14193e-09)
(0.625001 7.28524e-09 2.29638e-08)
(0.625006 9.92174e-08 4.05607e-07)
(0.625005 -4.2681e-08 -3.71752e-07)
(0.625005 6.49897e-08 3.34637e-07)
(0.625006 -1.31883e-08 -2.82285e-07)
(0.625004 2.0839e-08 1.08163e-07)
(0.625004 -1.3838e-08 -9.00566e-08)
(0.625003 1.00679e-08 1.09636e-08)
(0.625003 1.80304e-08 -9.7439e-09)
(0.625002 5.8525e-08 -5.07949e-10)
(0.625001 4.95406e-09 1.90833e-08)
(0.625006 6.55788e-08 4.17102e-07)
(0.625005 -3.44997e-08 -4.19115e-07)
(0.625005 4.713e-08 4.20198e-07)
(0.625006 -1.79763e-08 -4.13988e-07)
(0.625004 1.74498e-08 1.88046e-07)
(0.625004 -1.19341e-08 -1.88921e-07)
(0.625003 7.77018e-09 3.22893e-08)
(0.625003 9.9129e-09 -3.42584e-08)
(0.625002 3.37899e-08 -3.43262e-09)
(0.625001 7.69909e-08 4.9882e-10)
(0.625001 1.91034e-09 1.43704e-08)
(0.625006 1.87229e-08 3.74523e-07)
(0.625005 -4.50805e-09 -3.77306e-07)
(0.625005 1.94519e-09 3.77414e-07)
(0.625006 1.93844e-08 -3.57758e-07)
(0.625004 -1.21279e-08 1.5919e-07)
(0.625004 2.50253e-08 -1.5262e-07)
(0.625003 -5.47e-09 2.41989e-08)
(0.625003 1.58627e-08 -2.93672e-08)
(0.625002 1.33137e-08 -3.60323e-09)
(0.625001 2.27872e-08 -1.40636e-10)
(0.624999 5.77949e-08 -8.24288e-10)
(0.625002 6.52603e-08 2.56099e-09)
(0.625001 6.19248e-08 7.53702e-09)
(0.625006 3.09991e-07 5.21735e-08)
(0.625001 5.18366e-08 1.84289e-08)
(0.625006 3.04023e-07 2.96517e-08)
(0.625005 -2.22685e-07 -8.6712e-09)
(0.625001 4.06351e-08 1.68949e-08)
(0.625006 3.48305e-07 2.81759e-07)
(0.625005 -2.51538e-07 -1.70768e-07)
(0.625005 2.59772e-07 4.93099e-08)
(0.625001 3.19039e-08 2.68789e-08)
(0.625006 3.2142e-07 1.15103e-07)
(0.625005 -2.12835e-07 -7.07921e-08)
(0.625005 2.38834e-07 3.51748e-08)
(0.625006 -1.93599e-07 -1.01785e-08)
(0.625001 2.42697e-08 2.6144e-08)
(0.625006 3.3982e-07 4.74358e-07)
(0.625005 -2.34933e-07 -3.99199e-07)
(0.625005 2.61724e-07 2.61497e-07)
(0.625006 -2.13341e-07 -1.64134e-07)
(0.625004 1.019e-07 2.38573e-08)
(0.625001 1.81473e-08 3.19078e-08)
(0.625006 2.79401e-07 2.46851e-07)
(0.625005 -1.77498e-07 -1.79991e-07)
(0.625005 2.17885e-07 1.25776e-07)
(0.625006 -1.55305e-07 -8.23817e-08)
(0.625004 8.1249e-08 1.96758e-08)
(0.625004 -1.09566e-07 -6.28486e-09)
(0.625001 1.3485e-08 2.91727e-08)
(0.625006 2.76475e-07 5.29637e-07)
(0.625005 -1.86758e-07 -5.0586e-07)
(0.625005 2.24536e-07 4.24658e-07)
(0.625006 -1.62028e-07 -3.74333e-07)
(0.625004 8.7205e-08 1.21186e-07)
(0.625004 -1.10215e-07 -8.11913e-08)
(0.625003 3.4933e-08 5.44826e-09)
(0.625001 1.12313e-08 2.80718e-08)
(0.625006 1.99724e-07 3.72637e-07)
(0.625005 -1.13708e-07 -3.17285e-07)
(0.625005 1.55642e-07 2.59947e-07)
(0.625006 -8.69495e-08 -2.04351e-07)
(0.625004 5.89349e-08 6.80427e-08)
(0.625004 -6.7153e-08 -5.17904e-08)
(0.625003 2.50068e-08 4.56649e-09)
(0.625003 2.49593e-08 -2.50394e-09)
(0.625001 9.5009e-09 2.44587e-08)
(0.625006 1.73971e-07 4.77537e-07)
(0.625005 -1.08606e-07 -4.81764e-07)
(0.625005 1.44432e-07 4.64533e-07)
(0.625006 -8.94289e-08 -4.56802e-07)
(0.625004 5.97482e-08 1.89814e-07)
(0.625004 -6.29405e-08 -1.81424e-07)
(0.625003 2.26249e-08 2.67562e-08)
(0.625003 1.44071e-08 -2.22102e-08)
(0.625002 8.42353e-08 -1.23516e-09)
(0.625001 8.03077e-09 2.06355e-08)
(0.625006 1.08644e-07 4.05563e-07)
(0.625005 -5.22578e-08 -3.91208e-07)
(0.625005 7.26726e-08 3.70605e-07)
(0.625006 -2.05612e-08 -3.34079e-07)
(0.625004 2.25872e-08 1.36849e-07)
(0.625004 -1.57136e-08 -1.24334e-07)
(0.625003 1.01827e-08 1.70258e-08)
(0.625003 1.78174e-08 -1.93286e-08)
(0.625002 5.80871e-08 -1.93092e-09)
(0.625001 1.34116e-07 -6.6985e-11)
(0.625001 5.62018e-09 1.61844e-08)
(0.625006 7.05109e-08 3.89404e-07)
(0.625005 -3.93804e-08 -4.02678e-07)
(0.625005 5.11942e-08 4.15967e-07)
(0.625006 -2.22794e-08 -4.22489e-07)
(0.625004 1.85672e-08 1.99382e-07)
(0.625004 -1.3644e-08 -2.12245e-07)
(0.625003 7.89654e-09 3.85309e-08)
(0.625003 9.55645e-09 -4.77403e-08)
(0.625002 3.35309e-08 -6.14552e-09)
(0.625001 7.68428e-08 1.19122e-09)
(0.624999 1.56539e-07 -2.39683e-09)
(0.625001 2.19569e-09 1.14277e-08)
(0.625006 2.27646e-08 3.41409e-07)
(0.625005 -1.07213e-08 -3.59955e-07)
(0.625005 1.03351e-08 3.76248e-07)
(0.625006 7.00295e-09 -3.76062e-07)
(0.625004 -5.13825e-09 1.75068e-07)
(0.625004 1.60451e-08 -1.7909e-07)
(0.625003 -3.46489e-09 3.03284e-08)
(0.625003 1.35347e-08 -3.99844e-08)
(0.625002 1.29515e-08 -5.55453e-09)
(0.625001 2.29192e-08 -2.46039e-10)
(0.624999 5.73862e-08 -2.92647e-09)
(0.624995 9.30138e-08 9.76263e-10)
(0.625002 6.37257e-08 1.74756e-09)
(0.625001 6.37889e-08 1.06476e-08)
(0.625006 2.6188e-07 6.32413e-09)
(0.625001 5.87988e-08 1.28947e-08)
(0.625006 3.12257e-07 1.63249e-07)
(0.625005 -2.30595e-07 -5.58493e-08)
(0.625001 4.72634e-08 2.58074e-08)
(0.625006 3.05114e-07 5.96067e-08)
(0.625005 -2.18954e-07 -3.1078e-08)
(0.625005 2.13468e-07 8.46141e-09)
(0.625001 3.56563e-08 2.17135e-08)
(0.625006 3.50231e-07 3.97073e-07)
(0.625005 -2.48867e-07 -2.99645e-07)
(0.625005 2.59434e-07 1.5339e-07)
(0.625006 -2.25327e-07 -5.45376e-08)
(0.625001 2.79929e-08 3.12391e-08)
(0.625006 3.222e-07 1.63473e-07)
(0.625005 -2.0934e-07 -1.13285e-07)
(0.625005 2.37998e-07 7.00065e-08)
(0.625006 -1.9229e-07 -3.66169e-08)
(0.625004 9.21763e-08 5.20292e-09)
(0.625001 2.14362e-08 2.88794e-08)
(0.625006 3.42128e-07 5.36696e-07)
(0.625005 -2.33274e-07 -4.87337e-07)
(0.625005 2.62243e-07 3.66993e-07)
(0.625006 -2.1267e-07 -2.87166e-07)
(0.625004 1.01698e-07 7.38763e-08)
(0.625004 -1.35627e-07 -2.72271e-08)
(0.625001 1.66856e-08 3.32064e-08)
(0.625006 2.81725e-07 3.02118e-07)
(0.625005 -1.76082e-07 -2.36951e-07)
(0.625005 2.17644e-07 1.78097e-07)
(0.625006 -1.54046e-07 -1.31305e-07)
(0.625004 8.07039e-08 3.8942e-08)
(0.625004 -1.08945e-07 -2.26152e-08)
(0.625003 3.66724e-08 1.03776e-09)
(0.625001 1.30091e-08 2.9091e-08)
(0.625006 2.77346e-07 5.34671e-07)
(0.625005 -1.85724e-07 -5.31312e-07)
(0.625005 2.25121e-07 4.78072e-07)
(0.625006 -1.6205e-07 -4.54145e-07)
(0.625004 8.70925e-08 1.68942e-07)
(0.625004 -1.0999e-07 -1.41561e-07)
(0.625003 3.49016e-08 1.66086e-08)
(0.625003 2.6319e-08 -7.70705e-09)
(0.625001 1.15536e-08 2.6937e-08)
(0.625006 2.05697e-07 3.99935e-07)
(0.625005 -1.1777e-07 -3.60777e-07)
(0.625005 1.579e-07 3.13578e-07)
(0.625006 -8.86139e-08 -2.64871e-07)
(0.625004 5.87213e-08 9.58953e-08)
(0.625004 -6.71266e-08 -8.17376e-08)
(0.625003 2.48955e-08 8.90063e-09)
(0.625003 2.50521e-08 -8.94697e-09)
(0.625002 1.14569e-07 -5.11057e-10)
(0.625001 1.02101e-08 2.2182e-08)
(0.625006 1.75919e-07 4.52681e-07)
(0.625005 -1.09449e-07 -4.67566e-07)
(0.625005 1.444e-07 4.69159e-07)
(0.625006 -9.00694e-08 -4.7926e-07)
(0.625004 5.93503e-08 2.12659e-07)
(0.625004 -6.31932e-08 -2.19395e-07)
(0.625003 2.25346e-08 3.6732e-08)
(0.625003 1.44154e-08 -3.88707e-08)
(0.625002 8.35375e-08 -3.94712e-09)
(0.625001 1.99186e-07 5.77306e-10)
(0.625001 8.86619e-09 1.75187e-08)
(0.625006 1.1732e-07 3.87069e-07)
(0.625005 -6.20108e-08 -3.90998e-07)
(0.625005 8.10473e-08 3.89023e-07)
(0.625006 -2.98707e-08 -3.71282e-07)
(0.625004 2.51286e-08 1.61389e-07)
(0.625004 -1.86429e-08 -1.57233e-07)
(0.625003 1.04317e-08 2.36101e-08)
(0.625003 1.74642e-08 -2.99438e-08)
(0.625002 5.77014e-08 -3.90344e-09)
(0.625001 1.33755e-07 -3.01119e-10)
(0.624999 2.73686e-07 -7.38823e-10)
(0.625001 6.35903e-09 1.28634e-08)
(0.625006 7.5197e-08 3.50253e-07)
(0.625005 -4.43232e-08 -3.74849e-07)
(0.625005 5.55611e-08 3.99794e-07)
(0.625006 -2.71279e-08 -4.17852e-07)
(0.625004 2.0001e-08 2.03628e-07)
(0.625004 -1.56319e-08 -2.25605e-07)
(0.625003 8.06437e-09 4.28967e-08)
(0.625003 9.1248e-09 -5.82341e-08)
(0.625002 3.32499e-08 -8.68742e-09)
(0.625001 7.67205e-08 1.77961e-09)
(0.624999 1.56575e-07 -7.20677e-09)
(0.624995 3.13678e-07 2.82424e-09)
(0.625001 2.36806e-09 8.3335e-09)
(0.625006 2.54191e-08 2.9552e-07)
(0.625005 -1.48201e-08 -3.27279e-07)
(0.625005 1.6051e-08 3.58151e-07)
(0.625006 -2.13919e-09 -3.76105e-07)
(0.625004 2.96688e-10 1.83019e-07)
(0.625004 7.89886e-09 -1.97655e-07)
(0.625003 -1.57222e-09 3.54372e-08)
(0.625003 1.09399e-08 -4.99249e-08)
(0.625002 1.25239e-08 -7.507e-09)
(0.625001 2.31243e-08 -2.99224e-10)
(0.624999 5.68383e-08 -5.87946e-09)
(0.624995 9.35418e-08 3.3821e-09)
(0.62499 2.02704e-07 -1.30285e-10)
(0.625002 6.50169e-08 2.26031e-09)
(0.625001 6.4902e-08 7.50069e-09)
(0.625006 2.46147e-07 5.24011e-08)
(0.625001 6.25492e-08 1.73221e-08)
(0.625006 2.62427e-07 2.27391e-08)
(0.625005 -1.88215e-07 -7.58123e-09)
(0.625001 5.57661e-08 1.89173e-08)
(0.625006 3.1409e-07 2.87786e-07)
(0.625005 -2.28366e-07 -1.74708e-07)
(0.625005 2.21168e-07 5.07637e-08)
(0.625001 4.30389e-08 3.13583e-08)
(0.625006 3.05953e-07 9.5304e-08)
(0.625005 -2.15485e-07 -6.21489e-08)
(0.625005 2.12767e-07 3.0041e-08)
(0.625006 -1.86405e-07 -8.57493e-09)
(0.625001 3.15301e-08 2.63557e-08)
(0.625006 3.52195e-07 4.88179e-07)
(0.625005 -2.46651e-07 -4.21899e-07)
(0.625005 2.59151e-07 2.69509e-07)
(0.625006 -2.247e-07 -1.69702e-07)
(0.625004 1.05048e-07 2.4547e-08)
(0.625001 2.48125e-08 3.31396e-08)
(0.625006 3.2277e-07 2.15202e-07)
(0.625005 -2.0622e-07 -1.62042e-07)
(0.625005 2.37026e-07 1.1106e-07)
(0.625006 -1.90923e-07 -7.35327e-08)
(0.625004 9.18077e-08 1.82564e-08)
(0.625004 -1.20349e-07 -5.45664e-09)
(0.625001 1.94515e-08 3.13642e-08)
(0.625006 3.43615e-07 5.68011e-07)
(0.625005 -2.32181e-07 -5.50304e-07)
(0.625005 2.62944e-07 4.49258e-07)
(0.625006 -2.12396e-07 -4.027e-07)
(0.625004 1.0157e-07 1.28946e-07)
(0.625004 -1.35018e-07 -8.44832e-08)
(0.625003 4.49616e-08 5.63765e-09)
(0.625001 1.56718e-08 3.23256e-08)
(0.625006 2.84819e-07 3.48603e-07)
(0.625005 -1.76096e-07 -2.92503e-07)
(0.625005 2.17793e-07 2.32747e-07)
(0.625006 -1.53232e-07 -1.86521e-07)
(0.625004 8.0228e-08 6.16155e-08)
(0.625004 -1.08257e-07 -4.54613e-08)
(0.625003 3.65009e-08 3.60859e-09)
(0.625003 4.1027e-08 -2.36452e-09)
(0.625001 1.3146e-08 2.82945e-08)
(0.625006 2.77619e-07 5.18974e-07)
(0.625005 -1.84886e-07 -5.34019e-07)
(0.625005 2.25226e-07 5.04151e-07)
(0.625006 -1.62343e-07 -5.09911e-07)
(0.625004 8.7112e-08 2.05407e-07)
(0.625004 -1.09921e-07 -1.97729e-07)
(0.625003 3.48552e-08 2.83681e-08)
(0.625003 2.64354e-08 -2.41015e-08)
(0.625002 1.46374e-07 -1.34758e-09)
(0.625001 1.20567e-08 2.42907e-08)
(0.625006 2.12516e-07 4.07062e-07)
(0.625005 -1.23604e-07 -3.88046e-07)
(0.625005 1.6141e-07 3.55306e-07)
(0.625006 -9.19446e-08 -3.20585e-07)
(0.625004 5.89749e-08 1.24151e-07)
(0.625004 -6.74419e-08 -1.14581e-07)
(0.625003 2.47931e-08 1.41084e-08)
(0.625003 2.51401e-08 -1.78253e-08)
(0.625002 1.13624e-07 -1.94219e-09)
(0.625001 2.69306e-07 -1.33375e-10)
(0.625001 1.10968e-08 1.90196e-08)
(0.625006 1.78897e-07 4.16822e-07)
(0.625005 -1.11359e-07 -4.41227e-07)
(0.625005 1.44714e-07 4.56915e-07)
(0.625006 -9.11571e-08 -4.82479e-07)
(0.625004 5.89101e-08 2.23857e-07)
(0.625004 -6.35096e-08 -2.46024e-07)
(0.625003 2.24343e-08 4.3974e-08)
(0.625003 1.43676e-08 -5.44408e-08)
(0.625002 8.29386e-08 -7.08936e-09)
(0.625001 1.98607e-07 1.42541e-09)
(0.624999 3.98547e-07 -2.6631e-09)
(0.625001 9.73467e-09 1.39665e-08)
(0.625006 1.2503e-07 3.52415e-07)
(0.625005 -7.10821e-08 -3.72653e-07)
(0.625005 8.94339e-08 3.88034e-07)
(0.625006 -4.01869e-08 -3.90965e-07)
(0.625004 2.84105e-08 1.78732e-07)
(0.625004 -2.26032e-08 -1.85385e-07)
(0.625003 1.08676e-08 3.00073e-08)
(0.625003 1.68909e-08 -4.10272e-08)
(0.625002 5.72913e-08 -6.0325e-09)
(0.625001 1.33467e-07 -5.03071e-10)
(0.624999 2.73885e-07 -2.69194e-09)
(0.624995 5.48239e-07 9.37987e-10)
(0.625001 6.87469e-09 9.29548e-09)
(0.625006 7.94059e-08 3.01107e-07)
(0.625005 -4.91051e-08 -3.35918e-07)
(0.625005 5.99164e-08 3.71943e-07)
(0.625006 -3.24326e-08 -4.0182e-07)
(0.625004 2.16307e-08 2.01254e-07)
(0.625004 -1.8065e-08 -2.31074e-07)
(0.625003 8.25694e-09 4.51302e-08)
(0.625003 8.57023e-09 -6.6197e-08)
(0.625002 3.29535e-08 -1.06869e-08)
(0.625001 7.65912e-08 2.13073e-09)
(0.624999 1.56591e-07 -1.24205e-08)
(0.624995 3.13868e-07 8.4388e-09)
(0.62499 6.04191e-07 -1.64005e-09)
(0.625001 2.50342e-09 5.04052e-09)
(0.625006 2.73558e-08 2.40541e-07)
(0.625005 -1.74735e-08 -2.81824e-07)
(0.625005 1.98082e-08 3.24854e-07)
(0.625006 -8.46942e-09 -3.59174e-07)
(0.625004 4.25728e-09 1.82001e-07)
(0.625004 1.48294e-09 -2.07464e-07)
(0.625003 1.14312e-10 3.88946e-08)
(0.625003 8.45152e-09 -5.83922e-08)
(0.625002 1.20412e-08 -9.33969e-09)
(0.625001 2.3378e-08 -2.4085e-10)
(0.624999 5.60372e-08 -9.15448e-09)
(0.624995 9.4229e-08 6.54376e-09)
(0.62499 2.02e-07 -8.37821e-10)
(0.624981 3.50117e-07 -5.5641e-09)
(0.625002 6.60441e-08 1.32334e-09)
(0.625001 6.75891e-08 9.38524e-09)
(0.625006 1.9173e-07 5.51227e-09)
(0.625001 6.58674e-08 1.27546e-08)
(0.625006 2.46246e-07 1.64335e-07)
(0.625005 -1.88109e-07 -5.62618e-08)
(0.625001 6.13673e-08 2.43045e-08)
(0.625006 2.62521e-07 4.65504e-08)
(0.625005 -1.85771e-07 -2.69078e-08)
(0.625005 1.78156e-07 7.44844e-09)
(0.625001 5.28762e-08 2.40174e-08)
(0.625006 3.15997e-07 4.06876e-07)
(0.625005 -2.26543e-07 -3.07439e-07)
(0.625005 2.20838e-07 1.58431e-07)
(0.625006 -1.80915e-07 -5.48182e-08)
(0.625001 3.95e-08 3.62072e-08)
(0.625006 3.06636e-07 1.36217e-07)
(0.625005 -2.11968e-07 -9.94129e-08)
(0.625005 2.11912e-07 5.97159e-08)
(0.625006 -1.85334e-07 -3.07516e-08)
(0.625004 8.61187e-08 4.56605e-09)
(0.625001 2.82796e-08 2.93933e-08)
(0.625006 3.53963e-07 5.55354e-07)
(0.625005 -2.44875e-07 -5.18277e-07)
(0.625005 2.59137e-07 3.79959e-07)
(0.625006 -2.24241e-07 -2.98308e-07)
(0.625004 1.04918e-07 7.63229e-08)
(0.625004 -1.28351e-07 -2.77854e-08)
(0.625001 2.25406e-08 3.47668e-08)
(0.625006 3.23287e-07 2.66908e-07)
(0.625005 -2.0387e-07 -2.14796e-07)
(0.625005 2.36103e-07 1.57538e-07)
(0.625006 -1.89441e-07 -1.17298e-07)
(0.625004 9.13349e-08 3.58123e-08)
(0.625004 -1.19382e-07 -1.95546e-08)
(0.625003 4.75053e-08 9.75796e-10)
(0.625001 1.80143e-08 3.14005e-08)
(0.625006 3.4412e-07 5.74598e-07)
(0.625005 -2.31359e-07 -5.81158e-07)
(0.625005 2.63701e-07 5.08737e-07)
(0.625006 -2.12405e-07 -4.92163e-07)
(0.625004 1.01655e-07 1.80847e-07)
(0.625004 -1.34507e-07 -1.48124e-07)
(0.625003 4.47107e-08 1.72886e-08)
(0.625003 4.94285e-08 -8.14809e-09)
(0.625001 1.53076e-08 3.11189e-08)
(0.625006 2.88609e-07 3.81521e-07)
(0.625005 -1.78034e-07 -3.39764e-07)
(0.625005 2.18587e-07 2.85456e-07)
(0.625006 -1.53299e-07 -2.44469e-07)
(0.625004 7.99668e-08 8.71621e-08)
(0.625004 -1.07546e-07 -7.21445e-08)
(0.625003 3.63108e-08 7.09125e-09)
(0.625003 4.12039e-08 -8.41312e-09)
(0.625002 1.82876e-07 -4.78503e-10)
(0.625001 1.34396e-08 2.57799e-08)
(0.625006 2.77896e-07 4.8919e-07)
(0.625005 -1.84338e-07 -5.16043e-07)
(0.625005 2.24839e-07 5.08656e-07)
(0.625006 -1.6268e-07 -5.3609e-07)
(0.625004 8.72348e-08 2.31239e-07)
(0.625004 -1.0992e-07 -2.40568e-07)
(0.625003 3.48272e-08 3.92038e-08)
(0.625003 2.65455e-08 -4.23768e-08)
(0.625002 1.45191e-07 -4.27789e-09)
(0.625001 3.47552e-07 6.00876e-10)
(0.625001 1.28132e-08 2.0852e-08)
(0.625006 2.19688e-07 3.94268e-07)
(0.625005 -1.30831e-07 -3.95137e-07)
(0.625005 1.66018e-07 3.81023e-07)
(0.625006 -9.72475e-08 -3.64249e-07)
(0.625004 5.9828e-08 1.50165e-07)
(0.625004 -6.83317e-08 -1.4754e-07)
(0.625003 2.47408e-08 2.00977e-08)
(0.625003 2.51438e-08 -2.78623e-08)
(0.625002 1.12827e-07 -3.90371e-09)
(0.625001 2.68488e-07 -4.93817e-10)
(0.624999 5.41987e-07 -5.82927e-10)
(0.625001 1.19871e-08 1.51734e-08)
(0.625006 1.82814e-07 3.71445e-07)
(0.625005 -1.14651e-07 -4.04555e-07)
(0.625005 1.45712e-07 4.32159e-07)
(0.625006 -9.3071e-08 -4.68619e-07)
(0.625004 5.85122e-08 2.25969e-07)
(0.625004 -6.38888e-08 -2.59206e-07)
(0.625003 2.23076e-08 4.88432e-08)
(0.625003 1.42664e-08 -6.65806e-08)
(0.625002 8.2348e-08 -1.00593e-08)
(0.625001 1.98146e-07 2.22775e-09)
(0.624999 3.98884e-07 -8.07235e-09)
(0.624995 8.13447e-07 3.18113e-09)
(0.625001 1.04049e-08 1.00244e-08)
(0.625006 1.31723e-07 3.05056e-07)
(0.625005 -7.92462e-08 -3.3844e-07)
(0.625005 9.71323e-08 3.69091e-07)
(0.625006 -5.06826e-08 -3.9105e-07)
(0.625004 3.20733e-08 1.8752e-07)
(0.625004 -2.75084e-08 -2.05378e-07)
(0.625003 1.14764e-08 3.54698e-08)
(0.625003 1.60251e-08 -5.15401e-08)
(0.625002 5.68496e-08 -8.13598e-09)
(0.625001 1.33191e-07 -6.48073e-10)
(0.624999 2.74032e-07 -5.63467e-09)
(0.624995 5.48438e-07 3.30836e-09)
(0.62499 1.05694e-06 4.92623e-11)
(0.625001 7.22076e-09 5.56335e-09)
(0.625006 8.32632e-08 2.44397e-07)
(0.625005 -5.34199e-08 -2.8733e-07)
(0.625005 6.40647e-08 3.32863e-07)
(0.625006 -3.77968e-08 -3.74417e-07)
(0.625004 2.34458e-08 1.93023e-07)
(0.625004 -2.07493e-08 -2.29146e-07)
(0.625003 8.51065e-09 4.57407e-08)
(0.625003 7.92829e-09 -7.11989e-08)
(0.625002 3.26397e-08 -1.2229e-08)
(0.625001 7.64519e-08 2.13924e-09)
(0.624999 1.56579e-07 -1.70597e-08)
(0.624995 3.1406e-07 1.4288e-08)
(0.62499 6.03693e-07 -4.82165e-09)
(0.624981 1.11758e-06 -3.62269e-09)
(0.625001 2.5509e-09 1.82106e-09)
(0.625006 2.87383e-08 1.80734e-07)
(0.625005 -1.95611e-08 -2.27533e-07)
(0.625005 2.2222e-08 2.79057e-07)
(0.625006 -1.26862e-08 -3.26934e-07)
(0.625004 6.93374e-09 1.72707e-07)
(0.625004 -3.28264e-09 -2.07202e-07)
(0.625003 1.41644e-09 4.05131e-08)
(0.625003 6.18099e-09 -6.43007e-08)
(0.625002 1.15753e-08 -1.08903e-08)
(0.625001 2.3667e-08 -1.52318e-10)
(0.624999 5.50951e-08 -1.26521e-08)
(0.624995 9.5217e-08 1.00648e-08)
(0.62499 2.01237e-07 -2.21223e-09)
(0.624981 3.50755e-07 -1.74188e-08)
(0.624971 6.8934e-07 -1.51504e-08)
(0.625002 8.13916e-08 2.03681e-09)
(0.625001 6.80963e-08 5.74655e-09)
(0.625006 1.74221e-07 5.29221e-08)
(0.625001 6.97404e-08 1.53466e-08)
(0.625006 1.91742e-07 1.99377e-08)
(0.625005 -1.32394e-07 -5.16158e-09)
(0.625001 6.67128e-08 1.86218e-08)
(0.625006 2.46349e-07 2.90215e-07)
(0.625005 -1.86371e-07 -1.7631e-07)
(0.625005 1.69743e-07 5.11897e-08)