/*--------------------------------*- C++ -*----------------------------------*\
  =========                 |
  \\      /  F ield         | OpenFOAM: The Open Source CFD Toolbox
   \\    /   O peration     | Website:  https://openfoam.org
    \\  /    A nd           | Version:  7
     \\/     M anipulation  |
\*---------------------------------------------------------------------------*/
FoamFile
{
    version     2.0;
    format      ascii;
    class       surfaceScalarField;
    location    "200";
    object      phi;
}
// * * * * * * * * * * * * * * * * * * * * * * * * * * * * * * * * * * * * * //

dimensions      [0 3 -1 0 0 0 0];

internalField   nonuniform List<scalar> 
127637
(
-3.64842e-14
6.46565e-12
3.16815e-11
-1.01013e-13
8.03179e-12
3.52385e-11
-6.67555e-14
1.38001e-11
4.01814e-11
-8.46947e-14
5.82882e-14
3.17079e-11
-1.15771e-13
9.06056e-12
3.9063e-11
-1.36391e-13
1.70891e-11
4.46932e-11
-1.44011e-13
1.07038e-13
3.51908e-11
-1.34079e-13
2.22351e-11
5.06962e-11
-1.08809e-13
3.06055e-13
4.00424e-11
-1.68748e-14
5.46383e-13
3.11784e-11
-1.37799e-13
1.0188e-11
4.32492e-11
-1.60288e-13
1.92972e-11
4.9545e-11
-1.89443e-13
1.20724e-13
3.89877e-11
-2.11682e-13
2.73537e-11
5.6385e-11
-1.82254e-13
4.34146e-13
4.44395e-11
-3.58279e-14
6.15778e-13
3.45939e-11
-2.63219e-13
3.16229e-11
6.36302e-11
-1.40708e-13
7.93668e-13
5.03493e-11
-2.12054e-14
1.19851e-12
3.94115e-11
-1.23122e-14
7.27165e-14
3.1118e-11
-1.23592e-13
1.12631e-11
4.77677e-11
-1.82059e-13
2.17028e-11
5.48533e-11
-2.2161e-13
1.6102e-13
4.31204e-11
-2.41233e-13
3.09052e-11
6.2507e-11
-2.40781e-13
4.9012e-13
4.92342e-11
-5.5529e-14
6.85919e-13
3.83215e-11
-3.51788e-13
3.84831e-11
7.07615e-11
-2.31762e-13
1.03405e-12
5.58761e-11
-4.52461e-14
1.35032e-12
4.3729e-11
-2.45552e-14
8.05645e-14
3.45256e-11
-4.57656e-13
4.17213e-11
7.92968e-11
-1.8406e-13
1.66763e-12
6.29403e-11
-2.64932e-14
1.9816e-12
4.95927e-11
-1.55961e-14
1.70099e-13
3.93297e-11
-4.83164e-15
4.09087e-14
3.10819e-11
-1.12843e-13
1.24352e-11
5.26405e-11
-1.6469e-13
2.40033e-11
6.05829e-11
-2.34869e-13
1.87404e-13
4.75935e-11
-2.5772e-13
3.47664e-11
6.92026e-11
-2.80443e-13
6.01261e-13
5.44527e-11
-7.36332e-14
7.62987e-13
4.23755e-11
-3.84747e-13
4.34843e-11
7.84453e-11
-3.05885e-13
1.16695e-12
6.19043e-11
-7.02256e-14
1.50421e-12
4.84408e-11
-3.68292e-14
8.92925e-14
3.82445e-11
-5.73883e-13
5.00252e-11
8.81685e-11
-2.96107e-13
2.06263e-12
6.9845e-11
-5.68803e-14
2.23117e-12
5.50256e-11
-3.10317e-14
1.88454e-13
4.36365e-11
-1.03841e-14
4.56286e-14
3.44855e-11
-6.82969e-13
5.21964e-11
9.79017e-11
-2.41864e-13
3.09596e-12
7.81104e-11
-3.27586e-14
2.90378e-12
6.20509e-11
-1.96666e-14
2.97703e-13
4.94848e-11
-6.09601e-15
9.05993e-14
3.92861e-11
-3.2621e-15
5.79928e-15
3.10794e-11
-9.30542e-14
1.36595e-11
5.78597e-11
-1.4902e-13
2.65066e-11
6.67613e-11
-2.36667e-13
2.27374e-13
5.24149e-11
-2.32858e-13
3.84694e-11
7.64301e-11
-2.97527e-13
6.85946e-13
6.01015e-11
-8.93254e-14
8.43726e-13
4.67655e-11
-3.85216e-13
4.89259e-11
8.68453e-11
-3.54436e-13
1.38688e-12
6.84655e-11
-9.30707e-14
1.67333e-12
5.35652e-11
-4.87756e-14
9.95769e-14
4.22879e-11
-6.12247e-13
5.64932e-11
9.77417e-11
-3.8896e-13
2.32558e-12
7.73795e-11
-8.84238e-14
2.48538e-12
6.09547e-11
-4.65676e-14
2.08899e-13
4.83368e-11
-1.65208e-14
5.07048e-14
3.81999e-11
-8.63389e-13
6.15234e-11
1.08832e-10
-3.79047e-13
3.69619e-12
8.66721e-11
-7.10799e-14
3.26573e-12
6.88487e-11
-3.90455e-14
3.29877e-13
5.49036e-11
-1.31243e-14
1.01052e-13
4.35881e-11
-6.81225e-15
6.42644e-15
3.44827e-11
-8.69148e-13
6.26252e-11
1.19431e-10
-3.14128e-13
5.2301e-12
9.60817e-11
-3.98754e-14
3.96853e-12
7.70855e-11
-2.46865e-14
4.64771e-13
6.19085e-11
-7.6529e-15
1.51134e-13
4.94319e-11
-4.12426e-15
1.33042e-14
3.92827e-11
-1.82407e-15
1.97357e-15
3.10792e-11
-7.51131e-14
1.49674e-11
6.34194e-11
-1.23595e-13
2.91217e-11
7.33791e-11
-2.27235e-13
2.64587e-13
5.75857e-11
-2.08505e-13
4.249e-11
8.42231e-11
-2.99452e-13
8.00565e-13
6.61901e-11
-1.0216e-13
9.31149e-13
5.14965e-11
-3.46471e-13
5.41673e-11
9.5914e-11
-3.7598e-13
1.56975e-12
7.55678e-11
-1.12968e-13
1.85078e-12
5.91143e-11
-5.99415e-14
1.10681e-13
4.66659e-11
-5.84652e-13
6.35588e-11
1.08202e-10
-4.47249e-13
2.71025e-12
8.55802e-11
-1.17143e-13
2.76481e-12
6.74027e-11
-6.16509e-14
2.3275e-13
5.34471e-11
-2.3082e-14
5.61342e-14
4.22383e-11
-9.22389e-13
6.93782e-11
1.20645e-10
-4.93833e-13
4.16159e-12
9.60204e-11
-1.10751e-13
3.63734e-12
7.62672e-11
-5.86012e-14
3.65711e-13
6.08174e-11
-2.08797e-14
1.1228e-13
4.82829e-11
-1.06629e-14
7.10197e-15
3.81967e-11
-1.16212e-12
7.25827e-11
1.32736e-10
-4.81735e-13
6.0926e-12
1.06603e-10
-8.80824e-14
4.45536e-12
8.55307e-11
-4.88557e-14
5.15167e-13
6.86876e-11
-1.65076e-14
1.68542e-13
5.48449e-11
-8.61002e-15
1.47355e-14
4.35843e-11
-3.85713e-15
2.17619e-15
3.44825e-11
-9.45607e-13
7.25081e-11
1.43564e-10
-3.95086e-13
8.15342e-12
1.16903e-10
-4.74403e-14
5.17483e-12
9.49228e-11
-3.08048e-14
6.81697e-13
7.68994e-11
-9.53833e-15
2.23749e-13
6.18454e-11
-5.19036e-15
2.2896e-14
4.94275e-11
-2.30465e-15
4.36512e-15
3.92826e-11
-1.11972e-15
1.73547e-16
3.10802e-11
-5.63471e-14
1.63442e-11
6.92986e-11
-1.00034e-13
3.19137e-11
8.04286e-11
-2.11646e-13
3.06274e-13
6.30976e-11
-1.74145e-13
4.66902e-11
9.25704e-11
-2.8758e-13
9.11783e-13
7.272e-11
-1.11442e-13
1.02341e-12
5.65715e-11
-3.06639e-13
5.98426e-11
1.05691e-10
-3.77913e-13
1.80228e-12
8.32233e-11
-1.29167e-13
2.04287e-12
6.50945e-11
-6.99649e-14
1.23216e-13
5.13834e-11
-5.23767e-13
7.04132e-11
1.19499e-10
-4.73971e-13
3.05274e-12
9.44577e-11
-1.42246e-13
3.05849e-12
7.43852e-11
-7.57761e-14
2.5856e-13
5.89806e-11
-2.99226e-14
6.20431e-14
4.66107e-11
-8.61314e-13
7.80169e-11
1.33547e-10
-5.62508e-13
4.78614e-12
1.06195e-10
-1.46656e-13
4.04593e-12
8.4335e-11
-7.75591e-14
4.07181e-13
6.72473e-11
-2.91768e-14
1.24324e-13
5.33872e-11
-1.47863e-14
7.89961e-15
4.22345e-11
-1.27485e-12
8.16703e-11
1.47136e-10
-6.21916e-13
6.84782e-12
1.18099e-10
-1.37716e-13
4.96085e-12
9.47465e-11
-7.33173e-14
5.71228e-13
7.60861e-11
-2.62676e-14
1.87248e-13
6.07522e-11
-1.3479e-14
1.62944e-14
4.82786e-11
-6.09493e-15
2.44508e-15
3.81965e-11
-1.38911e-12
8.28166e-11
1.59521e-10
-5.99222e-13
9.33982e-12
1.29693e-10
-1.07818e-13
5.79636e-12
1.05322e-10
-6.06989e-14
7.55993e-13
8.53197e-11
-2.06367e-14
2.49438e-13
6.86178e-11
-1.08333e-14
2.53562e-14
5.484e-11
-4.87585e-15
4.82425e-15
4.35842e-11
-2.34666e-15
2.10757e-16
3.44835e-11
-8.92094e-13
8.12451e-11
1.69556e-10
-4.73576e-13
1.18335e-11
1.40357e-10
-5.47457e-14
6.51481e-12
1.15618e-10
-3.81328e-14
9.58498e-13
9.46841e-11
-1.17782e-14
3.09445e-13
7.68254e-11
-6.49525e-15
3.51028e-14
6.18397e-11
-2.89876e-15
7.27646e-15
4.94275e-11
-1.41559e-15
4.10696e-16
3.92838e-11
-6.29124e-16
4.68739e-17
3.10808e-11
-3.93691e-14
1.77927e-11
7.5478e-11
-7.58243e-14
3.48522e-11
8.78834e-11
-1.91767e-13
3.47296e-13
6.89314e-11
-1.42082e-13
5.11712e-11
1.01462e-10
-2.67766e-13
1.0343e-12
7.96808e-11
-1.17184e-13
1.12162e-12
6.19816e-11
-2.58227e-13
6.57708e-11
1.16164e-10
-3.62929e-13
2.03338e-12
9.14338e-11
-1.40923e-13
2.24574e-12
7.15094e-11
-7.84447e-14
1.36704e-13
5.64433e-11
-4.59382e-13
7.78122e-11
1.31677e-10
-4.75482e-13
3.46824e-12
1.04027e-10
-1.62609e-13
3.37635e-12
8.19101e-11
-8.84406e-14
2.87562e-13
6.49428e-11
-3.68261e-14
6.83393e-14
5.13219e-11
-7.72126e-13
8.64887e-11
1.47486e-10
-5.94999e-13
5.37359e-12
1.17211e-10
-1.78171e-13
4.47635e-12
9.30713e-11
-9.53408e-14
4.52134e-13
7.42094e-11
-3.78243e-14
1.37412e-13
5.89138e-11
-1.91327e-14
8.7258e-15
4.66064e-11
-1.19187e-12
9.17392e-11
1.62856e-10
-7.01978e-13
7.80245e-12
1.30611e-10
-1.82329e-13
5.51691e-12
1.04769e-10
-9.69985e-14
6.35559e-13
8.41303e-11
-3.67121e-14
2.07353e-13
6.71747e-11
-1.86898e-14
1.81064e-14
5.33822e-11
-8.5375e-15
2.67289e-15
4.22342e-11
-1.59804e-12
9.29274e-11
1.76815e-10
-7.68757e-13
1.04777e-11
1.43676e-10
-1.69499e-13
6.45074e-12
1.16671e-10
-9.10463e-14
8.38437e-13
9.45097e-11
-3.28536e-14
2.77066e-13
7.60085e-11
-1.69608e-14
2.80472e-14
6.07466e-11
-7.7032e-15
5.40622e-15
4.82785e-11
-3.69867e-15
2.05467e-16
3.81976e-11
-1.48849e-12
9.17567e-11
1.88361e-10
-7.19429e-13
1.34052e-11
1.55702e-10
-1.29631e-13
7.27889e-12
1.28285e-10
-7.47356e-14
1.06358e-12
1.05052e-10
-2.55989e-14
3.44767e-13
8.52382e-11
-1.35536e-14
3.88674e-14
6.86114e-11
-6.13527e-15
8.04937e-15
5.48399e-11
-2.9656e-15
4.84569e-16
4.35855e-11
-1.3303e-15
2.71259e-17
3.44842e-11
-7.49567e-13
8.81832e-11
1.96174e-10
-5.37531e-13
1.60898e-11
1.65837e-10
-6.10453e-14
7.96695e-12
1.38966e-10
-4.66653e-14
1.30226e-12
1.15321e-10
-1.43804e-14
4.08898e-13
9.45991e-11
-8.07116e-15
5.04959e-14
7.68181e-11
-3.62472e-15
1.07653e-14
6.18398e-11
-1.78119e-15
7.19615e-16
4.9429e-11
-7.94883e-16
1.03453e-16
3.92846e-11
-3.57992e-16
1.01945e-17
3.10811e-11
-2.39166e-14
1.93014e-11
8.19161e-11
-5.38626e-14
3.79427e-11
9.5719e-11
-1.70297e-13
3.89171e-13
7.50674e-11
-1.09893e-13
5.58862e-11
1.10866e-10
-2.42627e-13
1.15735e-12
8.70482e-11
-1.19262e-13
1.22483e-12
6.77087e-11
-2.12984e-13
7.20892e-11
1.2732e-10
-3.37825e-13
2.28548e-12
1.00186e-10
-1.4817e-13
2.46168e-12
7.83479e-11
-8.51034e-14
1.51366e-13
6.1837e-11
-3.89923e-13
8.554e-11
1.44722e-10
-4.5656e-13
3.88888e-12
1.1429e-10
-1.77426e-13
3.71231e-12
8.9982e-11
-9.91656e-14
3.18792e-13
7.13381e-11
-4.35434e-14
7.51368e-14
5.63749e-11
-6.74481e-13
9.56055e-11
1.62511e-10
-5.95479e-13
6.06125e-12
1.29084e-10
-2.03626e-13
4.94211e-12
1.02486e-10
-1.11271e-13
5.02453e-13
8.17112e-11
-4.65533e-14
1.51384e-13
6.48685e-11
-2.36242e-14
9.69942e-15
5.13167e-11
-1.07697e-12
1.01759e-10
1.79847e-10
-7.40896e-13
8.74045e-12
1.44158e-10
-2.21652e-13
6.10455e-12
1.15622e-10
-1.19254e-13
7.05425e-13
9.28403e-11
-4.75948e-14
2.29185e-13
7.41285e-11
-2.41855e-14
2.00052e-14
5.8908e-11
-1.11671e-14
2.99483e-15
4.6606e-11
-1.52661e-12
1.04198e-10
1.95682e-10
-8.62553e-13
1.18576e-11
1.58894e-10
-2.24573e-13
7.17106e-12
1.29012e-10
-1.204e-13
9.32236e-13
1.04502e-10
-4.59289e-14
3.06843e-13
8.40438e-11
-2.35163e-14
3.11464e-14
6.71682e-11
-1.07923e-14
5.92443e-15
5.3382e-11
-5.17309e-15
2.60655e-16
4.22355e-11
-1.823e-12
1.02659e-10
2.08765e-10
-9.22328e-13
1.50101e-11
1.72486e-10
-2.0556e-13
8.09499e-12
1.42107e-10
-1.11997e-13
1.17983e-12
1.16367e-10
-4.07889e-14
3.82851e-13
9.44191e-11
-2.12204e-14
4.30134e-14
7.60012e-11
-9.69211e-15
9.00846e-15
6.07465e-11
-4.6761e-15
4.88205e-16
4.82799e-11
-2.10043e-15
5.83381e-17
3.81983e-11
-1.45796e-12
9.88294e-11
2.17887e-10
-8.26644e-13
1.80967e-11
1.83959e-10
-1.52245e-13
8.88021e-12
1.54191e-10
-9.09373e-14
1.44579e-12
1.27947e-10
-3.14505e-14
4.552e-13
1.04958e-10
-1.68362e-14
5.59183e-14
8.52299e-11
-7.67552e-15
1.19308e-14
6.86115e-11
-3.73122e-15
8.38353e-16
5.48416e-11
-1.68211e-15
7.20132e-17
4.35863e-11
-7.44978e-16
3.7198e-17
3.44846e-11
-5.82162e-13
9.27161e-11
2.21702e-10
-5.78702e-13
2.05884e-11
1.92254e-10
-6.60837e-14
9.48515e-12
1.64385e-10
-5.61984e-14
1.71385e-12
1.38611e-10
-1.7328e-14
5.22206e-13
1.15225e-10
-9.94316e-15
6.96201e-14
9.45899e-11
-4.4988e-15
1.48787e-14
7.68185e-11
-2.22799e-15
1.12299e-15
6.18417e-11
-1.00009e-15
1.70173e-16
4.94299e-11
-4.52849e-16
3.139e-17
3.9285e-11
-1.79905e-16
8.90221e-18
3.10813e-11
-1.05156e-14
2.08602e-11
8.85642e-11
-3.39489e-14
4.11613e-11
1.03883e-10
-1.486e-13
4.30544e-13
8.14638e-11
-8.0743e-14
6.08438e-11
1.20749e-10
-2.1545e-13
1.2839e-12
9.47971e-11
-1.18008e-13
1.33308e-12
7.3733e-11
-1.68908e-13
7.87358e-11
1.39119e-10
-3.06135e-13
2.54163e-12
1.0945e-10
-1.50798e-13
2.68866e-12
8.5587e-11
-8.9704e-14
1.66827e-13
6.75464e-11
-3.25116e-13
9.37665e-11
1.58618e-10
-4.24822e-13
4.34426e-12
1.2523e-10
-1.86535e-13
4.06987e-12
9.85869e-11
-1.07581e-13
3.52678e-13
7.8155e-11
-4.98037e-14
8.22931e-14
6.17609e-11
-5.76593e-13
1.05129e-10
1.78607e-10
-5.7164e-13
6.76759e-12
1.41819e-10
-2.22206e-13
5.43487e-12
1.12586e-10
-1.24774e-13
5.56659e-13
8.97577e-11
-5.50451e-14
1.66451e-13
7.12552e-11
-2.81606e-14
1.06939e-14
5.63687e-11
-9.42651e-13
1.12515e-10
1.9816e-10
-7.39846e-13
9.81013e-12
1.58761e-10
-2.53265e-13
6.74031e-12
1.27318e-10
-1.39179e-13
7.83292e-13
1.02225e-10
-5.85817e-14
2.52518e-13
8.1621e-11
-2.9862e-14
2.22125e-14
6.48617e-11
-1.3962e-14
3.25165e-15
5.13162e-11
-1.40248e-12
1.15619e-10
2.16087e-10
-9.0923e-13
1.32604e-11
1.75373e-10
-2.7328e-13
7.93542e-12
1.42376e-10
-1.48048e-13
1.03428e-12
1.15321e-10
-5.95489e-14
3.39133e-13
9.27439e-11
-3.04328e-14
3.4414e-14
7.4121e-11
-1.41145e-14
6.62202e-15
5.89077e-11
-6.77113e-15
2.47208e-16
4.66073e-11
-1.80856e-12
1.1485e-10
2.31011e-10
-1.03431e-12
1.69e-11
1.90752e-10
-2.73063e-13
8.99396e-12
1.57139e-10
-1.48043e-13
1.31101e-12
1.28669e-10
-5.70438e-14
4.24001e-13
1.04401e-10
-2.94207e-14
4.77247e-14
8.40355e-11
-1.35806e-14
9.8844e-15
6.71681e-11
-6.53828e-15
5.98974e-16
5.33836e-11
-2.94686e-15
2.96496e-17
4.22363e-11
-1.91553e-12
1.10279e-10
2.41469e-10
-1.0652e-12
2.02278e-11
2.03786e-10
-2.44397e-13
9.86788e-12
1.70805e-10
-1.3611e-13
1.60414e-12
1.41728e-10
-5.01811e-14
5.05302e-13
1.16263e-10
-2.63591e-14
6.19051e-14
9.44097e-11
-1.21254e-14
1.3321e-14
7.60014e-11
-5.88477e-15
8.58875e-16
6.07483e-11
-2.65439e-15
1.28355e-16
4.82808e-11
-1.17459e-15
1.10198e-17
3.81988e-11
-1.33747e-12
1.03419e-10
2.46196e-10
-9.06873e-13
2.30525e-11
2.1326e-10
-1.74146e-13
1.05521e-11
1.82395e-10
-1.08975e-13
1.90344e-12
1.53787e-10
-3.81875e-14
5.80791e-13
1.27842e-10
-2.07311e-14
7.71178e-14
1.04948e-10
-9.53299e-15
1.65062e-14
8.52304e-11
-4.66812e-15
1.28064e-15
6.86135e-11
-2.11707e-15
1.27565e-16
5.48426e-11
-9.41055e-16
7.91956e-17
4.35869e-11
-3.79161e-16
1.87672e-19
3.44848e-11
-4.39556e-13
9.43919e-11
2.441e-10
-5.93865e-13
2.48734e-11
2.18011e-10
-7.04408e-14
1.09884e-11
1.90821e-10
-6.62744e-14
2.18399e-12
1.63981e-10
-2.05827e-14
6.48319e-13
1.38505e-10
-1.21194e-14
9.28599e-14
1.15213e-10
-5.53323e-15
1.96491e-14
9.45906e-11
-2.7667e-15
1.64219e-15
7.68207e-11
-1.25146e-15
2.50896e-16
6.18429e-11
-5.6981e-16
5.67648e-17
4.94305e-11
-2.27328e-16
2.69589e-17
3.92853e-11
-9.47916e-17
1.77553e-17
3.10814e-11
9.20014e-16
2.24543e-11
9.536e-11
-1.66758e-14
4.44863e-11
1.12313e-10
-1.27824e-13
4.71724e-13
8.80717e-11
-5.44598e-14
6.60059e-11
1.31047e-10
-1.88009e-13
1.41087e-12
1.02875e-10
-1.13796e-13
1.44562e-12
8.0014e-11
-1.29162e-13
8.57218e-11
1.5152e-10
-2.71856e-13
2.80613e-12
1.19193e-10
-1.49205e-13
2.92669e-12
9.32018e-11
-9.21415e-14
1.8313e-13
7.35523e-11
-2.63823e-13
1.02417e-10
1.73315e-10
-3.85028e-13
4.81105e-12
1.36809e-10
-1.89841e-13
4.44577e-12
1.07696e-10
-1.13399e-13
3.88437e-13
8.53712e-11
-5.53186e-14
8.99338e-14
6.7462e-11
-4.8522e-13
1.15252e-10
1.95754e-10
-5.31717e-13
7.52766e-12
1.55395e-10
-2.33588e-13
5.9593e-12
1.23352e-10
-1.35365e-13
6.15394e-13
9.83348e-11
-6.29615e-14
1.82338e-13
7.80628e-11
-3.26081e-14
1.18537e-14
6.17535e-11
-8.11608e-13
1.23759e-10
2.17782e-10
-7.10153e-13
1.09212e-11
1.74424e-10
-2.76417e-13
7.41378e-12
1.39864e-10
-1.56087e-13
8.67229e-13
1.12292e-10
-6.92684e-14
2.77667e-13
8.96571e-11
-3.55984e-14
2.44901e-14
7.12472e-11
-1.68746e-14
3.63435e-15
5.6368e-11
-1.23794e-12
1.27864e-10
2.3808e-10
-9.06905e-13
1.48314e-11
1.93137e-10
-3.12269e-13
8.76229e-12
1.56778e-10
-1.72791e-13
1.1475e-12
1.26978e-10
-7.33004e-14
3.73717e-13
1.02118e-10
-3.7575e-14
3.81812e-14
8.16122e-11
-1.76496e-14
7.20654e-15
6.48612e-11
-8.47914e-15
3.20692e-16
5.13176e-11
-1.7039e-12
1.27446e-10
2.55084e-10
-1.09151e-12
1.88721e-11
2.10533e-10
-3.32881e-13
9.95253e-12
1.73416e-10
-1.82073e-13
1.45393e-12
1.4199e-10
-7.39712e-14
4.68589e-13
1.15208e-10
-3.80758e-14
5.27462e-14
9.27343e-11
-1.77596e-14
1.10342e-14
7.41208e-11
-8.56004e-15
5.86029e-16
5.89094e-11
-3.86521e-15
7.59883e-17
4.66082e-11
-1.99611e-12
1.23082e-10
2.67164e-10
-1.20124e-12
2.26853e-11
2.25362e-10
-3.26388e-13
1.09562e-11
1.88871e-10
-1.79867e-13
1.78152e-12
1.56712e-10
-7.02154e-14
5.59576e-13
1.28554e-10
-3.65435e-14
6.86368e-14
1.0439e-10
-1.69919e-14
1.46525e-14
8.40355e-11
-8.2268e-15
1.0358e-15
6.717e-11
-3.72585e-15
7.99841e-17
5.33846e-11
-1.64393e-15
5.16634e-17
4.22368e-11
-1.88429e-12
1.15154e-10
2.72818e-10
-1.17953e-12
2.57273e-11
2.36242e-10
-2.83676e-13
1.17164e-11
2.02047e-10
-1.62915e-13
2.1122e-12
1.70351e-10
-6.1042e-14
6.44445e-13
1.41612e-10
-3.24527e-14
8.54009e-14
1.16251e-10
-1.50613e-14
1.83953e-14
9.44101e-11
-7.36361e-15
1.3452e-15
7.60036e-11
-3.33965e-15
2.10518e-16
6.07495e-11
-1.48563e-15
3.67769e-17
4.82814e-11
-5.98554e-16
1.09911e-17
3.8199e-11
-1.17829e-12
1.05009e-10
2.71027e-10
-9.5101e-13
2.77728e-11
2.41833e-10
-1.94188e-13
1.2208e-11
2.11727e-10
-1.28113e-13
2.42601e-12
1.81934e-10
-4.57248e-14
7.20398e-13
1.53672e-10
-2.52505e-14
1.02903e-13
1.2783e-10
-1.17344e-14
2.18136e-14
1.04949e-10
-5.79885e-15
1.84848e-15
8.52328e-11
-2.64911e-15
2.14499e-16
6.86148e-11
-1.18369e-15
1.26357e-16
5.48433e-11
-4.7956e-16
1.42189e-17
4.35871e-11
-1.93353e-16
3.67852e-17
3.44849e-11
-3.40957e-13
9.30204e-11
2.61238e-10
-5.84011e-13
2.84426e-11
2.41115e-10
-7.51785e-14
1.23581e-11
2.16717e-10
-7.62125e-14
2.68965e-12
1.90392e-10
-2.40848e-14
7.84152e-13
1.63869e-10
-1.458e-14
1.20263e-13
1.38492e-10
-6.73001e-15
2.50809e-14
1.15215e-10
-3.4052e-15
2.29996e-15
9.45934e-11
-1.55497e-15
3.43752e-16
7.68222e-11
-7.12309e-16
8.7709e-17
6.18436e-11
-2.86061e-16
4.16293e-17
4.94308e-11
-1.20226e-16
4.79839e-17
3.92854e-11
-4.66516e-17
4.58552e-17
3.10815e-11
1.04364e-14
2.40655e-11
1.02226e-10
-1.94302e-15
4.78863e-11
1.20931e-10
-1.08547e-13
5.12363e-13
9.48284e-11
-3.16801e-14
7.13382e-11
1.41682e-10
-1.6173e-13
1.53859e-12
1.1122e-10
-1.07206e-13
1.56163e-12
8.65035e-11
-9.36056e-14
9.29948e-11
1.64441e-10
-2.37274e-13
3.07373e-12
1.2935e-10
-1.43873e-13
3.1741e-12
1.01141e-10
-9.24057e-14
1.99937e-13
7.98143e-11
-2.08845e-13
1.11505e-10
1.88763e-10
-3.41971e-13
5.29453e-12
1.48989e-10
-1.87827e-13
4.83994e-12
1.17278e-10
-1.16479e-13
4.26129e-13
9.29619e-11
-5.98286e-14
9.7848e-14
7.34589e-11
-4.00709e-13
1.25893e-10
2.13888e-10
-4.8205e-13
8.31212e-12
1.69764e-10
-2.37725e-13
6.51071e-12
1.34749e-10
-1.42692e-13
6.77405e-13
1.07414e-10
-6.99326e-14
1.99281e-13
8.52688e-11
-3.6817e-14
1.30086e-14
6.74532e-11
-6.88271e-13
1.35693e-10
2.38685e-10
-6.60501e-13
1.21114e-11
1.9112e-10
-2.90546e-13
8.1305e-12
1.53238e-10
-1.69343e-13
9.58011e-13
1.23023e-10
-7.92327e-14
3.04212e-13
9.82228e-11
-4.12196e-14
2.71148e-14
7.80533e-11
-1.98494e-14
3.92314e-15
6.17525e-11
-1.07489e-12
1.40686e-10
2.61648e-10
-8.70959e-13
1.64771e-11
2.1219e-10
-3.40912e-13
9.63954e-12
1.72227e-10
-1.93818e-13
1.2696e-12
1.39482e-10
-8.66745e-14
4.10938e-13
1.12172e-10
-4.47951e-14
4.20898e-14
8.96468e-11
-2.13293e-14
8.03761e-15
7.12464e-11
-1.02848e-14
3.02811e-16
5.63695e-11
-1.5269e-12
1.40953e-10
2.8103e-10
-1.08975e-12
2.10542e-11
2.31855e-10
-3.80613e-13
1.09895e-11
1.90957e-10
-2.12534e-13
1.6118e-12
1.56344e-10
-9.1062e-14
5.16434e-13
1.26853e-10
-4.70113e-14
5.84551e-14
1.02107e-10
-2.22095e-14
1.20233e-14
8.16118e-11
-1.07173e-14
7.36298e-16
6.4863e-11
-4.85822e-15
3.444e-17
5.13185e-11
-1.94265e-12
1.36549e-10
2.94983e-10
-1.27334e-12
2.5299e-11
2.48729e-10
-3.99107e-13
1.21228e-11
2.08435e-10
-2.21275e-13
1.97499e-12
1.72936e-10
-9.10736e-14
6.18356e-13
1.41862e-10
-4.72962e-14
7.58671e-14
1.15196e-10
-2.22196e-14
1.63143e-14
9.27342e-11
-1.07723e-14
1.03135e-15
7.41229e-11
-4.88509e-15
1.67109e-16
5.89105e-11
-2.1584e-15
1.13846e-17
4.66087e-11
-2.07399e-12
1.28244e-10
3.01813e-10
-1.34466e-12
2.87658e-11
2.61248e-10
-3.81918e-13
1.29988e-11
2.23417e-10
-2.15307e-13
2.34462e-12
1.88361e-10
-8.54708e-14
7.13548e-13
1.56583e-10
-4.49902e-14
9.46268e-14
1.2854e-10
-2.11083e-14
2.02701e-14
1.0439e-10
-1.02929e-14
1.57919e-15
8.40379e-11
-4.6891e-15
1.42278e-16
6.71713e-11
-2.07729e-15
1.11048e-16
5.33852e-11
-8.42237e-16
-2.63224e-18
4.2237e-11
-1.7651e-12
1.16741e-10
3.00311e-10
-1.25155e-12
3.09542e-11
2.67892e-10
-3.20769e-13
1.35455e-11
2.34539e-10
-1.9139e-13
2.69223e-12
2.0153e-10
-7.32456e-14
7.98989e-13
1.70224e-10
-3.95181e-14
1.13979e-13
1.41598e-10
-1.85442e-14
2.42669e-14
1.16252e-10
-9.14817e-15
1.97626e-15
9.44129e-11
-4.17821e-15
3.09635e-16
7.6005e-11
-1.87013e-15
6.83995e-17
6.07502e-11
-7.56603e-16
3.39353e-17
4.82817e-11
-3.03996e-16
2.23312e-17
3.81992e-11
-1.01833e-12
1.03339e-10
2.90019e-10
-9.55821e-13
3.17029e-11
2.67468e-10
-2.11773e-13
1.37184e-11
2.40459e-10
-1.47202e-13
2.98778e-12
2.11237e-10
-5.38731e-14
8.70675e-13
1.81814e-10
-3.03501e-14
1.33323e-13
1.53657e-10
-1.4286e-14
2.78463e-14
1.27831e-10
-7.14107e-15
2.56303e-15
1.04952e-10
-3.29098e-15
3.1977e-16
8.52345e-11
-1.4806e-15
1.61433e-16
6.86156e-11
-6.03712e-16
2.54842e-17
5.48436e-11
-2.44383e-16
8.3422e-17
4.35873e-11
-8.15391e-17
9.83163e-17
3.4485e-11
-2.81717e-13
8.87414e-11
2.71398e-10
-5.53029e-13
3.08544e-11
2.5938e-10
-8.10308e-14
1.34499e-11
2.40104e-10
-8.52134e-14
3.19236e-12
2.16299e-10
-2.77465e-14
9.23587e-13
1.9028e-10
-1.72646e-14
1.51312e-13
1.63856e-10
-8.07764e-15
3.11276e-14
1.38494e-10
-4.14622e-15
3.11173e-15
1.15218e-10
-1.9156e-15
4.54526e-16
9.45952e-11
-8.83636e-16
1.22213e-16
7.68231e-11
-3.58023e-16
6.03129e-17
6.1844e-11
-1.51494e-16
8.13297e-17
4.9431e-11
-5.9429e-17
1.20178e-16
3.92855e-11
-1.28235e-17
6.26673e-19
3.10815e-11
1.82126e-14
2.56727e-11
1.09071e-10
1.03237e-14
5.13227e-11
1.29637e-10
-9.11106e-14
5.52463e-13
1.01656e-10
-1.22598e-14
7.67903e-11
1.52552e-10
-1.37352e-13
1.66598e-12
1.19753e-10
-9.8846e-14
1.68017e-12
9.31398e-11
-6.28345e-14
1.00507e-10
1.77785e-10
-2.04153e-13
3.34446e-12
1.39843e-10
-1.35535e-13
3.42913e-12
1.09344e-10
-9.06095e-14
2.17214e-13
8.62845e-11
-1.60072e-13
1.20965e-10
2.04859e-10
-2.98577e-13
5.78672e-12
1.61685e-10
-1.81108e-13
5.24961e-12
1.27268e-10
-1.16813e-13
4.65023e-13
1.00876e-10
-6.31034e-14
1.06174e-13
7.97114e-11
-3.25222e-13
1.37066e-10
2.32951e-10
-4.28294e-13
9.12647e-12
1.84877e-10
-2.35187e-13
7.0889e-12
1.46737e-10
-1.46569e-13
7.42749e-13
1.16965e-10
-7.56359e-14
2.16855e-13
9.28486e-11
-4.06137e-14
1.43325e-14
7.34484e-11
-5.75477e-13
1.48231e-10
2.60794e-10
-5.9914e-13
1.33461e-11
2.08793e-10
-2.9569e-13
8.8843e-12
1.67396e-10
-1.78524e-13
1.05393e-12
1.34381e-10
-8.80052e-14
3.32502e-13
1.0729e-10
-4.65423e-14
2.97526e-14
8.52573e-11
-2.28003e-14
4.37009e-15
6.74518e-11
-9.18151e-13
1.54276e-10
2.86755e-10
-8.10505e-13
1.82344e-11
2.32502e-10
-3.5833e-13
1.05732e-11
1.88695e-10
-2.10303e-13
1.40142e-12
1.52811e-10
-9.91465e-14
4.50311e-13
1.22889e-10
-5.1868e-14
4.65606e-14
9.82105e-11
-2.50922e-14
8.69461e-15
7.80522e-11
-1.21566e-14
3.99955e-16
6.1754e-11
-1.34055e-12
1.55137e-10
3.08841e-10
-1.0484e-12
2.33558e-11
2.54728e-10
-4.15767e-13
1.20917e-11
2.09773e-10
-2.38464e-13
1.78212e-12
1.7174e-10
-1.07682e-13
5.67879e-13
1.39342e-10
-5.60475e-14
6.44466e-14
1.12159e-10
-2.68382e-14
1.33936e-14
8.9646e-11
-1.30019e-14
7.1485e-16
7.12483e-11
-5.9153e-15
9.74161e-17
5.63705e-11
-1.77875e-12
1.51013e-10
3.24968e-10
-1.27608e-12
2.81696e-11
2.73918e-10
-4.57067e-13
1.33851e-11
2.29518e-10
-2.58378e-13
2.18785e-12
1.90418e-10
-1.1213e-13
6.81549e-13
1.562e-10
-5.83958e-14
8.39952e-14
1.26838e-10
-2.77893e-14
1.78257e-14
1.02106e-10
-1.34853e-14
1.2725e-15
8.1614e-11
-6.1422e-15
9.26535e-17
6.48641e-11
-2.71252e-15
6.76246e-17
5.13191e-11
-2.09458e-12
1.42214e-10
3.33214e-10
-1.43667e-12
3.204e-11
2.88334e-10
-4.69144e-13
1.43806e-11
2.46559e-10
-2.65001e-13
2.59834e-12
2.07861e-10
-1.10899e-13
7.88394e-13
1.72792e-10
-5.82295e-14
1.04602e-13
1.41846e-10
-2.76017e-14
2.25232e-14
1.15196e-10
-1.34791e-14
1.6185e-15
9.27368e-11
-6.14655e-15
2.73592e-16
7.41243e-11
-2.72951e-15
3.94017e-17
5.89112e-11
-1.10951e-15
1.40899e-17
4.6609e-11
-2.05044e-12
1.29782e-10
3.32192e-10
-1.44731e-12
3.45306e-11
2.96243e-10
-4.36072e-13
1.50174e-11
2.59345e-10
-2.53095e-13
2.98717e-12
2.22836e-10
-1.02642e-13
8.84458e-13
1.88219e-10
-5.47839e-14
1.26232e-13
1.56566e-10
-2.59909e-14
2.67839e-14
1.28541e-10
-1.27863e-14
2.2755e-15
1.04393e-10
-5.86764e-15
2.45748e-16
8.40395e-11
-2.61343e-15
1.78262e-16
6.71721e-11
-1.06527e-15
1.11614e-17
5.33856e-11
-4.25929e-16
4.74004e-17
4.22372e-11
-1.59839e-12
1.14762e-10
3.21336e-10
-1.27416e-12
3.52959e-11
2.96288e-10
-3.53243e-13
1.52132e-11
2.66366e-10
-2.19917e-13
3.31551e-12
2.33989e-10
-8.64735e-14
9.6524e-13
2.01397e-10
-4.74835e-14
1.47696e-13
1.70207e-10
-2.25847e-14
3.0936e-14
1.41599e-10
-1.12649e-14
2.77996e-15
1.16256e-10
-5.19021e-15
4.22758e-16
9.44147e-11
-2.34044e-15
1.06207e-16
7.60059e-11
-9.52215e-16
5.37002e-17
6.07506e-11
-3.8527e-16
6.14287e-17
4.82819e-11
-1.26644e-16
5.52274e-17
3.81992e-11
-8.7585e-13
9.85188e-11
3.01269e-10
-9.23719e-13
3.43531e-11
2.8774e-10
-2.2647e-13
1.49238e-11
2.66408e-10
-1.64776e-13
3.54595e-12
2.3998e-10
-6.23229e-14
1.02494e-12
2.11117e-10
-3.59023e-14
1.67796e-13
1.81798e-10
-1.71624e-14
3.45529e-14
1.5366e-10
-8.69937e-15
3.45185e-15
1.27835e-10
-4.05194e-15
4.54811e-16
1.04954e-10
-1.83881e-15
1.96199e-16
8.52355e-11
-7.55567e-16
4.56248e-17
6.86161e-11
-3.07673e-16
1.33561e-16
5.48438e-11
-1.01703e-16
2.16809e-16
4.35874e-11
-3.55199e-17
-3.39542e-17
3.44851e-11
-2.47263e-13
8.20153e-11
2.73445e-10
-5.0691e-13
3.18351e-11
2.70924e-10
-8.77686e-14
1.41215e-11
2.58796e-10
-9.25049e-14
3.64087e-12
2.39748e-10
-3.14336e-14
1.05686e-12
2.16197e-10
-2.00621e-14
1.84686e-13
1.90267e-10
-9.54416e-15
3.76459e-14
1.63859e-10
-4.98314e-15
4.08209e-15
1.38498e-10
-2.33431e-15
5.80218e-16
1.1522e-10
-1.08573e-15
1.6022e-16
9.45963e-11
-4.44976e-16
7.14677e-17
7.68236e-11
-1.89385e-16
1.17617e-16
6.18442e-11
-7.45987e-17
1.96087e-16
4.94311e-11
-1.60518e-17
1.23543e-18
3.92855e-11
-2.13338e-17
1.08198e-16
3.10816e-11
-1.30619e-15
-4.74248e-15
7.29277e-15
2.44349e-14
2.72517e-11
1.15794e-10
2.03577e-14
5.47503e-11
1.38318e-10
-7.56292e-14
5.917e-13
1.08464e-10
3.93068e-15
8.23005e-11
1.63535e-10
-1.15301e-13
1.79259e-12
1.28375e-10
-8.93555e-14
1.79983e-12
9.98465e-11
-3.66177e-14
1.08187e-10
1.91425e-10
-1.73433e-13
3.616e-12
1.50572e-10
-1.24959e-13
3.68968e-12
1.17733e-10
-8.69679e-14
2.34642e-13
9.29016e-11
-1.17937e-13
1.30733e-10
2.21482e-10
-2.57012e-13
6.28672e-12
1.74801e-10
-1.70605e-13
5.67183e-12
1.37589e-10
-1.1454e-13
5.05011e-13
1.09054e-10
-6.49848e-14
1.14645e-13
8.61716e-11
-2.58706e-13
1.48692e-10
2.52814e-10
-3.74172e-13
9.95941e-12
2.00632e-10
-2.26764e-13
7.68973e-12
1.59236e-10
-1.46992e-13
8.1023e-13
1.26923e-10
-7.97744e-14
2.35323e-13
1.00751e-10
-4.38264e-14
1.56172e-14
7.9699e-11
-4.74802e-13
1.61389e-10
2.84035e-10
-5.32668e-13
1.463e-11
2.27381e-10
-2.92512e-13
9.67466e-12
1.82288e-10
-1.83381e-13
1.15495e-12
1.4633e-10
-9.51841e-14
3.61875e-13
1.16827e-10
-5.13409e-14
3.27456e-14
9.2835e-11
-2.56352e-14
4.6889e-15
7.34465e-11
-7.74587e-13
1.68549e-10
3.13313e-10
-7.35972e-13
2.00645e-11
2.54001e-10
-3.6469e-13
1.15554e-11
2.06128e-10
-2.21734e-13
1.54079e-12
1.6692e-10
-1.10124e-13
4.922e-13
1.34233e-10
-5.85681e-14
5.10794e-14
1.07275e-10
-2.88203e-14
9.66834e-15
8.52558e-11
-1.40621e-14
3.80397e-16
6.74533e-11
-1.15433e-12
1.70155e-10
3.3847e-10
-9.77199e-13
2.58082e-11
2.7911e-10
-4.37102e-13
1.32648e-11
2.29831e-10
-2.58802e-13
1.96566e-12
1.88151e-10
-1.23183e-13
6.22398e-13
1.52654e-10
-6.48971e-14
7.12049e-14
1.22873e-10
-3.15753e-14
1.4505e-14
9.82093e-11
-1.5366e-14
9.17269e-16
7.80541e-11
-7.03123e-15
4.01815e-17
6.1755e-11
-1.58469e-12
1.66256e-10
3.57113e-10
-1.23203e-12
3.1214e-11
3.00938e-10
-4.99847e-13
1.47296e-11
2.52133e-10
-2.90026e-13
2.41753e-12
2.09169e-10
-1.32607e-13
7.49442e-13
1.71579e-10
-6.96243e-14
9.25974e-14
1.39325e-10
-3.35791e-14
1.98014e-14
1.12158e-10
-1.63618e-14
1.25531e-15
8.96483e-11
-7.47651e-15
2.14344e-16
7.12495e-11
-3.30965e-15
1.09196e-17
5.63711e-11
-1.96993e-12
1.5725e-10
3.67062e-10
-1.44965e-12
3.56207e-11
3.1753e-10
-5.38804e-13
1.58761e-11
2.71496e-10
-3.09624e-13
2.87651e-12
2.28874e-10
-1.36562e-13
8.68988e-13
1.90256e-10
-7.18973e-14
1.15697e-13
1.56182e-10
-3.45229e-14
2.46612e-14
1.26838e-10
-1.68721e-14
1.9376e-15
1.02109e-10
-7.73002e-15
1.64359e-16
8.16155e-11
-3.42801e-15
1.45696e-16
6.48649e-11
-1.40255e-15
-5.282e-18
5.13194e-11
-2.15136e-12
1.43841e-10
3.66727e-10
-1.56315e-12
3.84164e-11
3.26953e-10
-5.38774e-13
1.66101e-11
2.86207e-10
-3.11768e-13
3.30932e-12
2.45906e-10
-1.33236e-13
9.77072e-13
2.07703e-10
-7.09052e-14
1.39534e-13
1.72773e-10
-3.39879e-14
2.97003e-14
1.41847e-10
-1.67457e-14
2.38288e-15
1.15199e-10
-7.69005e-15
3.99778e-16
9.27385e-11
-3.43572e-15
7.42602e-17
7.41251e-11
-1.40271e-15
4.15918e-17
5.89115e-11
-5.62237e-16
2.50808e-17
4.66092e-11
-1.94736e-12
1.27413e-10
3.55418e-10
-1.49719e-12
3.9306e-11
3.2764e-10
-4.84786e-13
1.6856e-11
2.94536e-10
-2.9118e-13
3.67727e-12
2.58726e-10
-1.21282e-13
1.0682e-12
2.22688e-10
-6.58244e-14
1.63515e-13
1.882e-10
-3.16551e-14
3.41778e-14
1.56568e-10
-1.57453e-14
3.14735e-15
1.28545e-10
-7.2897e-15
3.71421e-16
1.04395e-10
-3.26949e-15
2.28057e-16
8.40405e-11
-1.34117e-15
2.10063e-17
6.71725e-11
-5.38735e-16
1.07707e-16
5.33857e-11
-1.74107e-16
1.31191e-16
4.22373e-11
-1.41588e-12
1.09332e-10
3.33784e-10
-1.24764e-12
3.82131e-11
3.18743e-10
-3.79007e-13
1.65436e-11
2.9511e-10
-2.46382e-13
3.93447e-12
2.65828e-10
-1.00181e-13
1.13583e-12
2.33856e-10
-5.61483e-14
1.85902e-13
2.01379e-10
-2.71442e-14
3.83452e-14
1.7021e-10
-1.37209e-14
3.77692e-15
1.41603e-10
-6.39155e-15
5.57807e-16
1.16258e-10
-2.90775e-15
1.49812e-16
9.44158e-11
-1.19169e-15
7.73212e-17
7.60064e-11
-4.8586e-16
1.05094e-16
6.07508e-11
-1.61607e-16
1.48541e-16
4.8282e-11
-5.46025e-17
6.12319e-18
3.81993e-11
-7.5397e-13
9.10228e-11
3.0352e-10
-8.62279e-13
3.54194e-11
3.00559e-10
-2.37496e-13
1.56659e-11
2.87147e-10
-1.7928e-13
4.04367e-12
2.65997e-10
-7.06346e-14
1.17243e-12
2.39872e-10
-4.16766e-14
2.0485e-13
2.11101e-10
-2.02937e-14
4.1776e-14
1.81802e-10
-1.04594e-14
4.51987e-15
1.53664e-10
-4.93457e-15
6.06197e-16
1.27837e-10
-2.26408e-15
2.2362e-16
1.04955e-10
-9.38713e-16
6.01877e-17
8.5236e-11
-3.8518e-16
1.75557e-16
6.86163e-11
-1.26821e-16
3.41739e-16
5.48439e-11