/*--------------------------------*- C++ -*----------------------------------*\
  =========                 |
  \\      /  F ield         | OpenFOAM: The Open Source CFD Toolbox
   \\    /   O peration     | Website:  https://openfoam.org
    \\  /    A nd           | Version:  7
     \\/     M anipulation  |
\*---------------------------------------------------------------------------*/
FoamFile
{
    version     2.0;
    format      ascii;
    class       volVectorField;
    location    "200";
    object      U;
}
// * * * * * * * * * * * * * * * * * * * * * * * * * * * * * * * * * * * * * //

dimensions      [0 1 -1 0 0 0 0];

internalField   nonuniform List<vector> 
43941
(
(0.62591 0.000252505 0.00178811)
(0.628523 -0.000593413 0.00200343)
(0.62632 0.000202087 0.00560871)
(0.646953 -0.000189721 9.05075e-06)
(0.629243 -0.000372333 0.00204017)
(0.628864 -0.000638467 0.00627527)
(0.647283 -0.00049543 1.78003e-05)
(0.627171 6.55641e-05 0.00988331)
(0.646904 -0.000191884 6.38335e-05)
(0.627368 -2.78142e-05 0.000106454)
(0.630603 -0.000725098 0.00207454)
(0.629587 -0.000421001 0.00639345)
(0.647449 -0.000661663 1.8113e-05)
(0.629562 -0.0007664 0.011008)
(0.647227 -0.000498145 9.22496e-05)
(0.627413 -8.88312e-05 0.000108153)
(0.628482 -0.000153237 0.0147294)
(0.646807 -0.000198316 0.000228169)
(0.627369 -2.76936e-05 0.000340356)
(0.626365 -1.82976e-05 1.17867e-05)
(0.631506 -0.00057685 0.00207822)
(0.630941 -0.000762275 0.00650211)
(0.647694 -0.00085187 2.27866e-05)
(0.630285 -0.000546387 0.0112255)
(0.647392 -0.000664146 9.39736e-05)
(0.627458 -0.000154994 0.000108759)
(0.630615 -0.000976851 0.0162627)
(0.647115 -0.000506037 0.000280061)
(0.627414 -8.866e-05 0.000345746)
(0.626368 -5.32091e-05 1.17704e-05)
(0.6302 -0.000403842 0.0200352)
(0.646628 -0.000210058 0.000534809)
(0.627371 -2.75182e-05 0.00061679)
(0.626363 -1.83059e-05 3.91619e-05)
(0.625039 -5.67555e-06 5.68333e-06)
(0.632396 -0.000587604 0.00208383)
(0.631843 -0.000608997 0.00651506)
(0.647864 -0.000914948 2.42628e-05)
(0.631627 -0.000857711 0.0114193)
(0.647636 -0.000853365 0.000108788)
(0.627533 -0.000220775 0.000109412)
(0.631331 -0.000759664 0.0165911)
(0.647279 -0.000671109 0.000285416)
(0.627459 -0.000154973 0.000347698)
(0.626374 -8.77765e-05 1.17768e-05)
(0.631993 -0.00122338 0.0218318)
(0.64691 -0.000520586 0.000612099)
(0.627416 -8.83959e-05 0.000626289)
(0.626366 -5.32193e-05 3.91068e-05)
(0.625041 -1.81698e-05 5.7142e-06)
(0.632154 -0.000602787 0.0256308)
(0.646315 -0.000225923 0.00105709)
(0.627373 -2.72321e-05 0.000945993)
(0.626358 -1.83291e-05 7.56425e-05)
(0.625039 -5.671e-06 1.8276e-05)
(0.624973 -3.34638e-06 6.77675e-07)
(0.633057 -0.000474499 0.00208381)
(0.632732 -0.000614342 0.00653336)
(0.648039 -0.000954236 2.72098e-05)
(0.632527 -0.000690134 0.0114474)
(0.647806 -0.000916254 0.000113647)
(0.627613 -0.000276092 0.000109638)
(0.632645 -0.00102167 0.0168817)
(0.64752 -0.000857822 0.000311855)
(0.627534 -0.000220771 0.000349804)
(0.626384 -0.00012268 1.18797e-05)
(0.632684 -0.00103821 0.0222683)
(0.64707 -0.000684104 0.000623492)
(0.627461 -0.000155014 0.000629844)
(0.626371 -8.77692e-05 3.9131e-05)
(0.625044 -3.23613e-05 5.73271e-06)
(0.633577 -0.00142012 0.0274708)
(0.64656 -0.000540776 0.00115785)
(0.627417 -8.79536e-05 0.000959709)
(0.626361 -5.3248e-05 7.55427e-05)
(0.625041 -1.81624e-05 1.83757e-05)
(0.624974 -1.02779e-05 6.76941e-07)
(0.634036 -0.000680783 0.031314)
(0.645804 -0.000241434 0.00187273)
(0.627373 -2.67116e-05 0.00132972)
(0.626349 -1.83756e-05 0.000123495)
(0.625039 -5.66066e-06 3.34471e-05)
(0.624973 -3.34638e-06 2.22508e-06)
(0.624945 -1.56819e-06 1.97572e-07)
(0.633582 -0.000400208 0.00208424)
(0.633392 -0.000497861 0.00653393)
(0.648179 -0.000927411 2.90985e-05)
(0.633411 -0.000681767 0.0114821)
(0.647981 -0.000955202 0.000122973)
(0.627708 -0.000325519 0.000109889)
(0.633538 -0.000830413 0.016932)
(0.64769 -0.000920037 0.000321179)
(0.627614 -0.000276124 0.000350569)
(0.626399 -0.000155403 1.19675e-05)
(0.633946 -0.00124026 0.0226607)
(0.647307 -0.000866239 0.000663415)
(0.627535 -0.000220821 0.000633691)
(0.626382 -0.000122661 3.9452e-05)
(0.625049 -4.7658e-05 5.73975e-06)
(0.634227 -0.00131988 0.0279917)
(0.646713 -0.000702891 0.00117809)
(0.627462 -0.000155115 0.000965093)
(0.626367 -8.77583e-05 7.56003e-05)
(0.625044 -3.23579e-05 1.8434e-05)
(0.624974 -1.78159e-05 6.75316e-07)
(0.635123 -0.00148354 0.0329745)
(0.646003 -0.000561354 0.00199015)
(0.627416 -8.7153e-05 0.00134702)
(0.626352 -5.33044e-05 0.000123369)
(0.625041 -1.81459e-05 3.3627e-05)
(0.624974 -1.02783e-05 2.222e-06)
(0.624945 -4.91296e-06 1.96332e-07)
(0.635431 -0.000625942 0.0368366)
(0.645014 -0.000250241 0.00303707)
(0.627364 -2.57604e-05 0.00176772)
(0.626333 -1.84497e-05 0.000185887)
(0.625038 -5.64093e-06 5.18133e-05)
(0.624973 -3.3467e-06 4.2163e-06)
(0.624945 -1.56849e-06 6.34947e-07)
(0.624969 -8.32994e-07 1.46292e-08)
(0.633958 -0.000305269 0.00208367)
(0.633916 -0.000420595 0.00653563)
(0.648304 -0.000877827 3.10115e-05)
(0.63407 -0.000556487 0.0114853)
(0.648121 -0.000928303 0.000128995)
(0.627804 -0.000361648 0.000109949)
(0.634414 -0.000798581 0.0169871)
(0.647865 -0.000958096 0.000337811)
(0.627708 -0.000325555 0.000351406)
(0.626418 -0.000185786 1.21025e-05)
(0.634825 -0.00102185 0.0227422)
(0.647476 -0.000927174 0.000678744)
(0.627615 -0.000276237 0.000635199)
(0.626396 -0.000155381 3.97297e-05)
(0.625057 -6.38541e-05 5.7489e-06)
(0.63541 -0.00146937 0.0284783)
(0.646942 -0.000878301 0.00123306)
(0.627536 -0.000220927 0.000970953)
(0.626377 -0.000122623 7.6157e-05)
(0.625049 -4.76562e-05 1.84585e-05)
(0.624976 -2.5958e-05 6.79466e-07)
(0.635724 -0.00152311 0.0335364)
(0.646144 -0.000723698 0.00202168)
(0.627461 -0.000155188 0.0013543)
(0.626357 -8.77401e-05 0.000123484)
(0.625044 -3.23502e-05 3.37299e-05)
(0.624974 -1.78156e-05 2.21744e-06)
(0.624945 -8.60873e-06 1.99201e-07)
(0.63625 -0.00138379 0.0381664)
(0.645164 -0.000573677 0.00316076)
(0.627405 -8.5696e-05 0.00178698)
(0.626336 -5.33911e-05 0.000185789)
(0.62504 -1.81146e-05 5.20795e-05)
(0.624973 -1.02791e-05 4.20915e-06)
(0.624945 -4.91287e-06 6.31751e-07)
(0.624969 -2.55467e-06 1.607e-08)
(0.63589 -0.00048837 0.0419002)
(0.643862 -0.000247827 0.00456134)
(0.627334 -2.41965e-05 0.00225846)
(0.626307 -1.85424e-05 0.00026623)
(0.625037 -5.60742e-06 7.36587e-05)
(0.624973 -3.34755e-06 6.75924e-06)
(0.624945 -1.56888e-06 1.16093e-06)
(0.624969 -8.32724e-07 4.89076e-08)
(0.624983 -3.92888e-07 3.43023e-09)
(0.634225 -0.000223319 0.0020832)
(0.634292 -0.000323392 0.0065341)
(0.648405 -0.000802743 3.23724e-05)
(0.634592 -0.000471685 0.0114895)
(0.648246 -0.000878625 0.000135053)
(0.627901 -0.00038719 0.00010999)
(0.635067 -0.000658147 0.016995)
(0.648005 -0.00093092 0.000348713)
(0.627804 -0.000361697 0.000351642)
(0.626442 -0.000212009 1.22263e-05)
(0.635683 -0.000958909 0.0228221)
(0.647651 -0.000963591 0.000703941)
(0.62771 -0.000325668 0.000636813)
(0.626416 -0.000185762 4.01546e-05)
(0.625066 -8.04724e-05 5.75095e-06)
(0.636263 -0.0012329 0.0286002)
(0.647111 -0.000937549 0.00125647)
(0.627616 -0.000276456 0.000973422)
(0.626391 -0.000155337 7.66529e-05)
(0.625056 -6.38529e-05 1.84882e-05)
(0.624978 -3.46064e-05 6.80121e-07)
(0.636802 -0.001647 0.0340928)
(0.646362 -0.000891067 0.00209245)
(0.627534 -0.000221021 0.00136232)
(0.626368 -0.000122554 0.000124304)
(0.625049 -4.76517e-05 3.37796e-05)
(0.624976 -2.59574e-05 2.22978e-06)
(0.624946 -1.26669e-05 1.96888e-07)
(0.6368 -0.00158925 0.0387167)
(0.645291 -0.000739051 0.00320474)
(0.62745 -0.00015497 0.0017959)
(0.626341 -8.77043e-05 0.000186002)
(0.625043 -3.23352e-05 5.22305e-05)
(0.624974 -1.7815e-05 4.20245e-06)
(0.624945 -8.60877e-06 6.40083e-07)
(0.624969 -4.45847e-06 1.40808e-08)
(0.636508 -0.00116495 0.042848)
(0.643965 -0.000569954 0.00468081)
(0.627373 -8.32519e-05 0.00227732)
(0.626309 -5.34902e-05 0.000266245)
(0.625038 -1.80617e-05 7.40025e-05)
(0.624973 -1.02808e-05 6.74683e-06)
(0.624945 -4.91251e-06 1.15698e-06)
(0.624969 -2.55484e-06 5.28521e-08)
(0.624983 -1.23688e-06 1.75792e-09)
(0.635032 -0.000336297 0.0461603)
(0.642268 -0.000234328 0.00639557)
(0.627262 -2.20374e-05 0.00279697)
(0.626265 -1.86233e-05 0.000367379)
(0.625034 -5.5575e-06 9.91809e-05)
(0.624972 -3.34942e-06 9.98011e-06)
(0.624945 -1.56935e-06 1.79716e-06)
(0.624969 -8.32312e-07 9.50303e-08)
(0.624983 -3.93117e-07 1.09922e-08)
(0.624992 -1.98532e-07 6.26461e-10)
(0.634406 -0.000145451 0.00208264)
(0.634559 -0.000239534 0.00653278)
(0.648489 -0.000719424 3.34523e-05)
(0.634967 -0.000368714 0.0114877)
(0.648348 -0.000803502 0.000139368)
(0.627994 -0.000399607 0.000109961)
(0.635585 -0.000560279 0.0170029)
(0.64813 -0.000880951 0.000359535)
(0.627902 -0.00038724 0.000351809)
(0.626469 -0.000233591 1.23597e-05)
(0.636326 -0.000798432 0.0228375)
(0.647791 -0.000935888 0.000720751)
(0.627806 -0.000361835 0.000637369)
(0.626439 -0.000211987 4.05459e-05)
(0.625079 -9.69338e-05 5.75627e-06)
(0.637092 -0.00113795 0.028709)
(0.647284 -0.000971558 0.00129151)
(0.62771 -0.000325887 0.000976018)
(0.626411 -0.000185712 7.74014e-05)
(0.625066 -8.04718e-05 1.84967e-05)
(0.624981 -4.36399e-05 6.86761e-07)
(0.637614 -0.00141666 0.0342609)
(0.646527 -0.000948983 0.00212642)
(0.627614 -0.000276753 0.00136598)
(0.626382 -0.000155256 0.000125057)
(0.625056 -6.38499e-05 3.38345e-05)
(0.624978 -3.46058e-05 2.23223e-06)
(0.624947 -1.70615e-05 1.99968e-07)
(0.63775 -0.00172398 0.0393012)
(0.645492 -0.000898709 0.00329057)
(0.627522 -0.000220887 0.00180601)
(0.626352 -0.000122433 0.000187107)
(0.625048 -4.76426e-05 5.23129e-05)
(0.624976 -2.59562e-05 4.22231e-06)
(0.624946 -1.2667e-05 6.33491e-07)
(0.62497 -6.54286e-06 1.62303e-08)
(0.637004 -0.00151527 0.0433373)
(0.644076 -0.000740623 0.00473651)
(0.627418 -0.000154003 0.00228728)
(0.626315 -8.76247e-05 0.000266612)
(0.625041 -3.2309e-05 7.41997e-05)
(0.624974 -1.78139e-05 6.73901e-06)
(0.624945 -8.60866e-06 1.16992e-06)
(0.624969 -4.45876e-06 4.71907e-08)
(0.624983 -2.16146e-06 3.47651e-09)
(0.635504 -0.000907671 0.0467637)
(0.642334 -0.000547848 0.00650325)
(0.627298 -7.97019e-05 0.0028131)
(0.626267 -5.35483e-05 0.000367603)
(0.625036 -1.79823e-05 9.95703e-05)
(0.624972 -1.02836e-05 9.96181e-06)
(0.624945 -4.91168e-06 1.79378e-06)
(0.624969 -2.5551e-06 1.00563e-07)
(0.624983 -1.237e-06 6.24434e-09)
(0.624992 -5.95693e-07 2.12227e-09)
(0.632667 -0.000213601 0.0492697)
(0.640181 -0.000213522 0.00841986)
(0.627121 -1.96315e-05 0.00337097)
(0.626203 -1.86442e-05 0.00049071)
(0.625029 -5.49277e-06 0.000128491)
(0.624971 -3.35253e-06 1.40106e-05)
(0.624945 -1.56963e-06 2.55324e-06)
(0.624969 -8.31694e-07 1.55223e-07)
(0.624983 -3.93557e-07 1.99231e-08)
(0.624992 -1.98349e-07 2.45836e-09)
(0.624997 -8.36316e-08 4.94333e-10)
(0.634525 -7.79164e-05 0.00208216)
(0.63474 -0.000160096 0.00653112)
(0.648553 -0.000632026 3.41994e-05)
(0.635233 -0.000280041 0.0114859)
(0.648431 -0.000720138 0.000142783)
(0.628079 -0.000400627 0.000109909)
(0.635957 -0.000447293 0.0170011)
(0.648232 -0.000805674 0.000367263)
(0.627994 -0.000399659 0.000351748)
(0.6265 -0.000249481 1.24732e-05)
(0.636837 -0.000682714 0.02285)
(0.647916 -0.000885379 0.000737168)
(0.627903 -0.000387376 0.000637782)
(0.626467 -0.000233572 4.09669e-05)
(0.625094 -0.000112636 5.75464e-06)
(0.63772 -0.000957149 0.0287355)
(0.647424 -0.000943183 0.00131541)
(0.627806 -0.000362099 0.000977054)
(0.626434 -0.000211942 7.80969e-05)
(0.625079 -9.69335e-05 1.85145e-05)
(0.624986 -5.2875e-05 6.89338e-07)
(0.638405 -0.00129876 0.0344012)
(0.646698 -0.000980227 0.00217254)
(0.627707 -0.000326197 0.00136976)
(0.626402 -0.000185618 0.000126173)
(0.625066 -8.047e-05 3.38554e-05)
(0.624981 -4.36391e-05 2.25258e-06)
(0.624949 -2.17709e-05 1.9713e-07)
(0.63851 -0.00153313 0.0395137)
(0.645653 -0.000956916 0.00333752)
(0.627602 -0.000276974 0.00181103)
(0.626366 -0.000155113 0.000188161)
(0.625055 -6.38438e-05 5.2397e-05)
(0.624978 -3.46043e-05 4.22757e-06)
(0.624947 -1.70615e-05 6.42574e-07)
(0.62497 -8.81281e-06 1.38817e-08)
(0.637818 -0.00168815 0.0438992)
(0.644255 -0.000894487 0.00483468)
(0.627488 -0.00022012 0.00229906)
(0.626325 -0.000122226 0.000268023)
(0.625046 -4.76258e-05 7.4321e-05)
(0.624975 -2.59539e-05 6.76548e-06)
(0.624946 -1.26671e-05 1.16005e-06)
(0.62497 -6.54322e-06 5.33665e-08)
(0.624983 -3.18355e-06 1.56601e-09)
(0.635941 -0.00134514 0.0471628)
(0.642426 -0.000723597 0.00656807)
(0.627342 -0.000151808 0.0028232)
(0.626273 -8.74497e-05 0.000368191)
(0.625039 -3.22669e-05 9.9804e-05)
(0.624973 -1.78121e-05 9.95466e-06)
(0.624945 -8.60832e-06 1.81028e-06)
(0.624969 -4.45906e-06 9.20822e-08)
(0.624983 -2.16158e-06 1.11192e-08)
(0.624992 -1.0394e-06 5.46651e-10)
(0.633028 -0.000677001 0.0496156)
(0.640218 -0.000510865 0.00851227)
(0.627154 -7.53976e-05 0.00338286)
(0.626204 -5.3479e-05 0.000491205)
(0.625031 -1.78768e-05 0.000128875)
(0.624971 -1.02878e-05 1.39881e-05)
(0.624945 -4.91014e-06 2.55222e-06)
(0.624969 -2.55546e-06 1.61253e-07)
(0.624983 -1.23714e-06 1.28575e-08)
(0.624992 -5.95739e-07 6.69972e-09)
(0.624997 -2.61307e-07 1.22818e-11)
(0.628858 -0.000132975 0.0509394)
(0.637597 -0.000189725 0.0104503)
(0.626877 -1.75323e-05 0.0039564)
(0.626113 -1.85596e-05 0.000634958)
(0.625021 -5.42133e-06 0.000161488)
(0.624969 -3.35692e-06 1.89617e-05)
(0.624945 -1.56959e-06 3.43583e-06)
(0.624969 -8.31068e-07 2.33181e-07)
(0.624983 -3.94307e-07 3.05748e-08)
(0.624992 -1.9798e-07 5.45784e-09)
(0.624997 -8.36145e-08 1.86773e-09)
(0.625 -4.04726e-08 8.30356e-10)
(0.6346 -1.94083e-05 0.00208173)
(0.634858 -9.12324e-05 0.00652966)
(0.648601 -0.000547077 3.4727e-05)
(0.635413 -0.000196647 0.0114833)
(0.648495 -0.000632702 0.00014514)
(0.628156 -0.000390777 0.000109839)
(0.636222 -0.000350246 0.0169988)
(0.648315 -0.00072216 0.000373345)
(0.62808 -0.000400677 0.000351611)
(0.626533 -0.000259387 1.25766e-05)
(0.637204 -0.000556012 0.0228488)
(0.648017 -0.000809814 0.000748939)
(0.627995 -0.000399798 0.000637775)
(0.626498 -0.000249466 4.13261e-05)
(0.625111 -0.000126867 5.7575e-06)
(0.638219 -0.000821823 0.0287542)
(0.647548 -0.000891938 0.00133828)
(0.627903 -0.000387638 0.000977845)
(0.626462 -0.000233532 7.88428e-05)
(0.625093 -0.000112636 1.85112e-05)
(0.624991 -6.20708e-05 6.97638e-07)
(0.639011 -0.00110412 0.0344428)
(0.646837 -0.000951413 0.00220482)
(0.627803 -0.000362497 0.00137148)
(0.626425 -0.000211856 0.000127221)
(0.625078 -9.69326e-05 3.38901e-05)
(0.624986 -5.28744e-05 2.261e-06)
(0.624951 -2.67248e-05 2.00645e-07)
(0.63925 -0.00140978 0.0396848)
(0.645819 -0.00098594 0.00339569)
(0.627694 -0.000326483 0.00181618)
(0.626385 -0.000185455 0.000189681)
(0.625065 -8.04661e-05 5.24371e-05)
(0.624981 -4.36372e-05 4.26192e-06)
(0.624949 -2.1771e-05 6.34242e-07)
(0.624971 -1.12539e-05 1.64371e-08)
(0.638512 -0.00156592 0.0441456)
(0.644408 -0.000955785 0.00489603)
(0.627566 -0.000276793 0.00230552)
(0.626339 -0.00015487 0.00026942)
(0.625054 -6.38322e-05 7.44362e-05)
(0.624977 -3.46012e-05 6.77516e-06)
(0.624947 -1.70616e-05 1.17451e-06)
(0.62497 -8.81328e-06 4.64634e-08)
(0.624983 -4.29522e-06 3.71292e-09)
(0.63662 -0.00156327 0.0476593)
(0.64258 -0.000873979 0.00667394)
(0.62741 -0.000218242 0.00283594)
(0.626283 -0.000121877 0.000369921)
(0.625044 -4.75975e-05 9.99644e-05)
(0.624975 -2.59499e-05 9.98569e-06)
(0.624946 -1.2667e-05 1.79862e-06)
(0.62497 -6.5436e-06 1.0149e-07)
(0.624983 -3.18383e-06 5.60624e-09)
(0.624992 -1.52452e-06 2.40513e-09)
(0.633403 -0.0011376 0.0499185)
(0.640292 -0.000688588 0.0085824)
(0.627196 -0.000148216 0.00339218)
(0.62621 -8.71014e-05 0.000492071)
(0.625034 -3.22056e-05 0.000129125)
(0.624972 -1.78092e-05 1.39828e-05)
(0.624945 -8.60759e-06 2.57015e-06)
(0.624969 -4.45933e-06 1.51013e-07)
(0.624983 -2.1617e-06 2.0089e-08)
(0.624992 -1.03958e-06 2.26659e-09)
(0.624997 -4.55629e-07 4.96152e-10)
(0.629133 -0.000502264 0.0511188)
(0.637616 -0.000465061 0.0105273)
(0.626907 -7.11051e-05 0.00396371)
(0.626114 -5.31924e-05 0.000635723)
(0.625023 -1.77552e-05 0.00016181)
(0.62497 -1.02931e-05 1.89377e-05)
(0.624945 -4.90773e-06 3.43744e-06)
(0.624969 -2.556e-06 2.38003e-07)
(0.624983 -1.2373e-06 2.20877e-08)
(0.624992 -5.9577e-07 1.17511e-08)
(0.624997 -2.61412e-07 5.33424e-10)
(0.625 -1.16375e-07 1.5672e-09)
(0.623919 -8.78564e-05 0.0509947)
(0.634579 -0.000166075 0.012264)
(0.626502 -1.61871e-05 0.00451462)
(0.625987 -1.83495e-05 0.000794956)
(0.625008 -5.35664e-06 0.000197646)
(0.624967 -3.36208e-06 2.48874e-05)
(0.624944 -1.56903e-06 4.44871e-06)
(0.624969 -8.30512e-07 3.32724e-07)
(0.624983 -3.95258e-07 4.31513e-08)
(0.624992 -1.97333e-07 9.03536e-09)
(0.624997 -8.36586e-08 3.75509e-09)
(0.625 -4.04774e-08 2.99469e-09)
(0.625002 -2.28661e-08 1.88714e-09)
(0.634646 2.96211e-05 0.00208138)
(0.634934 -3.1598e-05 0.00652836)
(0.648635 -0.000467111 3.50765e-05)
(0.635532 -0.000124449 0.0114808)
(0.648543 -0.000547713 0.000146798)
(0.628222 -0.000372061 0.000109759)
(0.636401 -0.000259974 0.0169951)
(0.648379 -0.000634596 0.000377533)
(0.628156 -0.000390825 0.00035141)
(0.626567 -0.000263036 1.26555e-05)
(0.637465 -0.000447398 0.022846)
(0.648101 -0.000726016 0.000758149)
(0.628081 -0.00040081 0.000637613)
(0.626531 -0.000259375 4.16527e-05)
(0.62513 -0.000138977 5.75273e-06)
(0.638579 -0.000679967 0.0287542)
(0.64765 -0.000816017 0.00135476)
(0.627995 -0.000400065 0.000977986)
(0.626493 -0.000249435 7.94819e-05)
(0.62511 -0.000126867 1.85212e-05)
(0.624998 -7.09371e-05 7.00948e-07)
(0.639493 -0.000952068 0.0344692)
(0.646962 -0.000899508 0.00223497)
(0.6279 -0.000388043 0.00137282)
(0.626453 -0.000233456 0.000128339)
(0.625093 -0.000112636 3.38899e-05)
(0.624991 -6.20702e-05 2.2867e-06)
(0.624953 -3.18442e-05 1.97648e-07)
(0.639827 -0.00121374 0.0397449)
(0.645958 -0.000957622 0.00343763)
(0.627789 -0.000362949 0.0018188)
(0.626409 -0.000211706 0.000191126)
(0.625077 -9.69303e-05 5.24926e-05)
(0.624985 -5.28725e-05 4.27749e-06)
(0.624951 -2.67247e-05 6.44821e-07)
(0.624972 -1.38531e-05 1.4066e-08)
(0.63919 -0.00145769 0.0443427)
(0.644569 -0.000984257 0.00496658)
(0.627657 -0.000326477 0.00231213)
(0.626358 -0.000185183 0.000271373)
(0.625064 -8.04583e-05 7.45037e-05)
(0.624981 -4.36335e-05 6.82339e-06)
(0.624949 -2.1771e-05 1.16137e-06)
(0.624971 -1.12543e-05 5.40235e-08)
(0.624983 -5.50359e-06 1.49823e-09)
(0.637237 -0.00152338 0.047922)
(0.642724 -0.000941364 0.00674925)
(0.627487 -0.000275768 0.00284376)
(0.626297 -0.00015447 0.000371704)
(0.625051 -6.3812e-05 0.000100111)
(0.624977 -3.45958e-05 1.00021e-05)
(0.624947 -1.70614e-05 1.81726e-06)
(0.62497 -8.81376e-06 9.0582e-08)
(0.624983 -4.2955e-06 1.18753e-08)
(0.624992 -2.05884e-06 4.60815e-10)
(0.633956 -0.00139 0.0503266)
(0.640422 -0.000836874 0.00869043)
(0.627261 -0.000214948 0.00340496)
(0.626219 -0.000121311 0.000494124)
(0.625039 -4.75536e-05 0.000129317)
(0.624974 -2.59438e-05 1.40168e-05)
(0.624946 -1.26665e-05 2.55923e-06)
(0.62497 -6.54395e-06 1.62539e-07)
(0.624983 -3.1841e-06 1.16534e-08)
(0.624992 -1.52469e-06 7.63374e-09)
(0.624997 -6.72004e-07 -1.01833e-10)
(0.629443 -0.000938498 0.0513367)
(0.637674 -0.000640194 0.0105985)
(0.626947 -0.00014355 0.00397157)
(0.626119 -8.64946e-05 0.000636894)
(0.625026 -3.21253e-05 0.000162051)
(0.62497 -1.78049e-05 1.89355e-05)
(0.624945 -8.60636e-06 3.45515e-06)
(0.624969 -4.45952e-06 2.27834e-07)
(0.624983 -2.16184e-06 3.07414e-08)
(0.624992 -1.03972e-06 5.28225e-09)
(0.624997 -4.55753e-07 1.89735e-09)
(0.625 -2.01003e-07 8.488e-10)
(0.624125 -0.000383706 0.0510792)
(0.634588 -0.000416184 0.012327)
(0.626529 -6.76021e-05 0.00451799)
(0.625988 -5.26357e-05 0.000795926)
(0.62501 -1.76365e-05 0.000197863)
(0.624967 -1.02987e-05 2.48653e-05)
(0.624945 -4.90446e-06 4.45232e-06)
(0.624969 -2.55676e-06 3.35637e-07)
(0.624983 -1.23745e-06 3.47864e-08)
(0.624992 -5.95763e-07 1.64839e-08)
(0.624997 -2.61515e-07 1.90981e-09)
(0.625 -1.16514e-07 5.11619e-09)
(0.625002 -4.3069e-08 3.67172e-09)
(0.618337 -6.59323e-05 0.0494248)
(0.631263 -0.000144351 0.0136411)
(0.625978 -1.57387e-05 0.00499404)
(0.625822 -1.80268e-05 0.000960682)
(0.624989 -5.31376e-06 0.000235734)
(0.624963 -3.36732e-06 3.17383e-05)
(0.624944 -1.56814e-06 5.58867e-06)
(0.624969 -8.30262e-07 4.57156e-07)
(0.624983 -3.96366e-07 5.78493e-08)
(0.624992 -1.9653e-07 1.31369e-08)
(0.624997 -8.37877e-08 5.56297e-09)
(0.625 -4.03799e-08 6.05981e-09)
(0.625002 -2.23852e-08 6.63638e-09)
(0.625002 -1.61582e-10 2.02898e-11)
(0.634673 7.00734e-05 0.00208109)
(0.63498 1.83958e-05 0.00652726)
(0.648657 -0.000394122 3.53125e-05)
(0.635607 -6.19924e-05 0.0114786)
(0.648577 -0.000467708 0.000147891)
(0.628277 -0.000346358 0.000109684)
(0.636519 -0.000181978 0.0169914)
(0.648427 -0.000549481 0.000380459)
(0.628223 -0.000372106 0.000351173)
(0.6266 -0.000260646 1.27199e-05)
(0.637642 -0.000347609 0.0228409)
(0.648165 -0.000638211 0.000764481)
(0.628157 -0.000390951 0.000637317)
(0.626564 -0.000263028 4.19023e-05)
(0.62515 -0.000148362 5.75269e-06)
(0.638835 -0.000558296 0.0287509)
(0.647734 -0.000731844 0.00136757)
(0.628081 -0.000401067 0.000977864)
(0.626526 -0.000259352 8.00614e-05)
(0.62513 -0.000138978 1.85077e-05)
(0.625006 -7.91415e-05 7.09405e-07)
(0.639843 -0.000797038 0.0344714)
(0.647064 -0.000823397 0.00225687)
(0.627992 -0.000400487 0.00137324)
(0.626484 -0.000249376 0.000129302)
(0.62511 -0.000126867 3.39108e-05)
(0.624998 -7.09368e-05 2.29734e-06)
(0.624957 -3.6997e-05 2.01623e-07)
(0.640289 -0.00105212 0.0397808)
(0.646082 -0.000905666 0.00347584)
(0.627885 -0.000388536 0.00182088)
(0.626437 -0.000233324 0.000192655)
(0.625092 -0.000112635 5.25017e-05)
(0.624991 -6.20685e-05 4.3216e-06)
(0.624953 -3.1844e-05 6.35902e-07)
(0.624973 -1.65726e-05 1.70455e-08)
(0.639733 -0.00127524 0.044424)
(0.644706 -0.00095819 0.00501914)
(0.627751 -0.00036325 0.00231587)
(0.626382 -0.000211456 0.000273254)
(0.625076 -9.69253e-05 7.45835e-05)
(0.624985 -5.28687e-05 6.84833e-06)
(0.624951 -2.67245e-05 1.17877e-06)
(0.624972 -1.38536e-05 4.69656e-08)
(0.624984 -6.79695e-06 3.93565e-09)
(0.637846 -0.00144739 0.048136)
(0.642876 -0.000971774 0.00683139)
(0.627576 -0.000325803 0.0028518)
(0.626316 -0.000184747 0.000374109)
(0.625061 -8.04435e-05 0.000100212)
(0.62498 -4.36269e-05 1.00624e-05)
(0.624949 -2.17709e-05 1.8008e-06)
(0.624971 -1.12547e-05 1.02664e-07)
(0.624983 -5.50404e-06 5.34523e-09)
(0.624992 -2.63627e-06 2.58898e-09)
(0.63449 -0.00142786 0.0505857)
(0.640553 -0.00091229 0.00877702)
(0.627335 -0.000273517 0.00341389)
(0.626233 -0.000153838 0.000496325)
(0.625046 -6.37792e-05 0.00012949)
(0.624976 -3.45871e-05 1.40411e-05)
(0.624947 -1.70611e-05 2.57957e-06)
(0.62497 -8.81418e-06 1.48735e-07)
(0.624983 -4.29577e-06 2.14329e-08)
(0.624992 -2.05915e-06 1.95764e-09)
(0.624997 -9.10404e-07 5.20433e-10)
(0.629884 -0.00120598 0.0516537)
(0.637779 -0.000786348 0.0107034)
(0.627007 -0.000210313 0.00398353)
(0.626128 -0.000120446 0.00063925)
(0.625031 -4.74916e-05 0.000162258)
(0.624972 -2.59349e-05 1.89708e-05)
(0.624946 -1.26656e-05 3.44652e-06)
(0.62497 -6.54428e-06 2.39454e-07)
(0.624983 -3.18433e-06 2.03795e-08)
(0.624992 -1.52486e-06 1.34991e-08)
(0.624997 -6.72334e-07 1.63008e-10)
(0.625 -2.94769e-07 1.64731e-09)
(0.624373 -0.000771377 0.0512307)
(0.634633 -0.000584443 0.0123952)
(0.626566 -0.000138464 0.00452411)
(0.625993 -8.55705e-05 0.000797381)
(0.625013 -3.20321e-05 0.000198066)
(0.624968 -1.77989e-05 2.48667e-05)
(0.624945 -8.60454e-06 4.46818e-06)
(0.624969 -4.45963e-06 3.26599e-07)
(0.624983 -2.16198e-06 4.32556e-08)
(0.624992 -1.03979e-06 8.89214e-09)
(0.624997 -4.55892e-07 3.89572e-09)
(0.625 -2.01371e-07 3.09577e-09)
(0.625002 -7.47343e-08 1.84464e-09)
(0.618489 -0.000308268 0.0494607)
(0.631266 -0.000368579 0.0136922)
(0.626001 -6.53067e-05 0.00499459)
(0.625823 -5.18154e-05 0.000961756)
(0.62499 -1.75447e-05 0.000235829)
(0.624963 -1.03035e-05 3.172e-05)
(0.624944 -4.90071e-06 5.59244e-06)
(0.624969 -2.55779e-06 4.57878e-07)
(0.624983 -1.23761e-06 5.05439e-08)
(0.624992 -5.95732e-07 2.02801e-08)
(0.624997 -2.61597e-07 3.45753e-09)
(0.625 -1.16635e-07 9.26394e-09)
(0.625002 -4.30521e-08 1.17569e-08)
(0.625002 -1.71339e-08 -1.12491e-09)
(0.612649 -5.66207e-05 0.0463978)
(0.627838 -0.00012541 0.0144157)
(0.625311 -1.6044e-05 0.00533798)
(0.625614 -1.76297e-05 0.00111734)
(0.624961 -5.3044e-06 0.00027358)
(0.624958 -3.37215e-06 3.93056e-05)
(0.624944 -1.56726e-06 6.83828e-06)
(0.624969 -8.30322e-07 6.08213e-07)
(0.624983 -3.97422e-07 7.49726e-08)
(0.624992 -1.95604e-07 1.76578e-08)
(0.624997 -8.39861e-08 7.20931e-09)
(0.625 -4.0123e-08 9.37779e-09)
(0.625002 -2.16872e-08 1.29641e-08)
(0.625002 -5.30752e-10 7.8462e-11)
(0.625003 -1.96579e-08 3.45121e-09)
(-1.18721e-06 -1.44395e-05 1.35414e-06)
(0.634687 0.000102733 0.00208086)
(0.635006 5.9679e-05 0.00652636)
(0.64867 -0.000328799 3.5467e-05)
(0.635653 -9.58697e-06 0.0114767)
(0.6486 -0.000394681 0.000148624)
(0.628322 -0.000315882 0.000109609)
(0.636593 -0.000114619 0.016988)
(0.648461 -0.000469359 0.000382372)
(0.628278 -0.000346399 0.000350945)
(0.626632 -0.000252665 1.27631e-05)
(0.637759 -0.000261573 0.0228356)
(0.648213 -0.000552858 0.000768877)
(0.628223 -0.000372223 0.000636944)
(0.626598 -0.000260641 4.21055e-05)
(0.625172 -0.000154546 5.74596e-06)
(0.639009 -0.000447707 0.028744)
(0.647798 -0.000643714 0.00137638)
(0.628157 -0.000391197 0.000977513)
(0.62656 -0.000263013 8.05054e-05)
(0.62515 -0.000148362 1.85083e-05)
(0.625016 -8.63244e-05 7.12406e-07)
(0.640093 -0.000663418 0.0344678)
(0.647147 -0.000738931 0.00227376)
(0.628077 -0.000401479 0.00137326)
(0.626517 -0.000259308 0.000130171)
(0.625129 -0.000138979 3.38915e-05)
(0.625006 -7.91413e-05 2.32364e-06)
(0.624961 -4.2036e-05 1.98626e-07)
(0.640627 -0.000888944 0.0397867)
(0.646184 -0.000829951 0.00350382)
(0.627977 -0.000401032 0.00182175)
(0.626467 -0.000249272 0.000193983)
(0.625109 -0.000126867 5.25365e-05)
(0.624998 -7.09354e-05 4.34092e-06)
(0.624957 -3.69967e-05 6.48094e-07)
(0.624974 -1.93708e-05 1.47857e-08)
(0.640169 -0.00111354 0.0444718)
(0.644828 -0.000907458 0.00506594)
(0.627846 -0.000388958 0.00231888)
(0.62641 -0.000233103 0.000275225)
(0.625091 -0.000112632 7.46106e-05)
(0.624991 -6.20647e-05 6.91137e-06)
(0.624953 -3.18438e-05 1.16437e-06)
(0.624973 -1.65731e-05 5.59835e-08)
(0.624984 -8.17212e-06 1.45374e-09)
(0.638346 -0.00129214 0.048239)
(0.64301 -0.000950314 0.00689481)
(0.627668 -0.000363084 0.00285684)
(0.62634 -0.000211054 0.000376456)
(0.625073 -9.69154e-05 0.00010032)
(0.624984 -5.28618e-05 1.00995e-05)
(0.624951 -2.67242e-05 1.82385e-06)
(0.624972 -1.38541e-05 9.12637e-08)
(0.624984 -6.79738e-06 1.25944e-08)
(0.624993 -3.26163e-06 3.63368e-10)
(0.635023 -0.00139349 0.050805)
(0.640695 -0.000947246 0.00886855)
(0.627421 -0.000324102 0.00342322)
(0.626252 -0.000184075 0.000499187)
(0.625056 -8.04181e-05 0.000129628)
(0.624979 -4.36164e-05 1.41117e-05)
(0.624949 -2.17706e-05 2.56261e-06)
(0.624971 -1.1255e-05 1.64263e-07)
(0.624983 -5.50449e-06 1.10783e-08)
(0.624992 -2.63658e-06 8.23221e-09)
(0.624997 -1.17206e-06 -1.69444e-10)
(0.630334 -0.00130421 0.0518929)
(0.637896 -0.000870001 0.0107968)
(0.627078 -0.000269898 0.00399317)
(0.626142 -0.000152891 0.000641874)
(0.625038 -6.37299e-05 0.000162449)
(0.624974 -3.45743e-05 1.90039e-05)
(0.624947 -1.70605e-05 3.46666e-06)
(0.62497 -8.81447e-06 2.24888e-07)
(0.624983 -4.29599e-06 3.26582e-08)
(0.624992 -2.05947e-06 4.66361e-09)
(0.624997 -9.10758e-07 1.9398e-09)
(0.625 -3.99526e-07 7.81375e-10)
(0.624719 -0.00103602 0.0514682)
(0.634718 -0.000727353 0.012493)
(0.626621 -0.000204749 0.00453464)
(0.626002 -0.000119225 0.000799989)
(0.625018 -4.74124e-05 0.000198266)
(0.624969 -2.59225e-05 2.49025e-05)
(0.624946 -1.26641e-05 4.46284e-06)
(0.62497 -6.54461e-06 3.36944e-07)
(0.624983 -3.18445e-06 3.2755e-08)
(0.624992 -1.52499e-06 1.90191e-08)
(0.624997 -6.72672e-07 1.24366e-09)
(0.625 -2.95205e-07 5.38614e-09)
(0.625002 -1.03925e-07 3.9981e-09)
(0.618683 -0.000641766 0.0495649)
(0.631302 -0.000527024 0.0137544)
(0.626035 -0.000133601 0.00499906)
(0.625827 -8.43216e-05 0.000963423)
(0.624993 -3.1939e-05 0.000235973)
(0.624964 -1.77908e-05 3.1725e-05)
(0.624945 -8.60225e-06 5.60553e-06)
(0.624969 -4.45972e-06 4.50689e-07)
(0.624983 -2.16215e-06 5.78221e-08)
(0.624992 -1.03974e-06 1.30383e-08)
(0.624997 -4.56041e-07 5.82497e-09)
(0.625 -2.01736e-07 6.34515e-09)
(0.625002 -7.46866e-08 6.59387e-09)
(0.625002 -2.6479e-08 1.80698e-10)
(0.612762 -0.000261317 0.0464115)
(0.627839 -0.000325162 0.014457)
(0.625331 -6.41945e-05 0.00533685)
(0.625615 -5.07939e-05 0.00111841)
(0.624963 -1.75015e-05 0.000273559)
(0.624958 -1.03068e-05 3.92907e-05)
(0.624944 -4.89719e-06 6.8407e-06)
(0.624969 -2.55907e-06 6.07392e-07)
(0.624983 -1.23776e-06 6.938e-08)
(0.624992 -5.9566e-07 2.36704e-08)
(0.624997 -2.61651e-07 5.21114e-09)
(0.625 -1.16701e-07 1.32307e-08)
(0.625002 -4.29984e-08 2.08371e-08)
(0.625002 -1.7216e-08 -3.14461e-09)
(0.625003 -7.29798e-10 7.65959e-09)
(0.607327 -5.31467e-05 0.0422323)
(0.624514 -0.00010954 0.014516)
(0.624533 -1.68148e-05 0.00549798)
(0.625368 -1.72059e-05 0.00124717)
(0.624924 -5.33323e-06 0.000308023)
(0.62495 -3.37655e-06 4.71716e-05)
(0.624943 -1.56681e-06 8.15674e-06)
(0.624969 -8.30696e-07 7.8522e-07)
(0.624983 -3.98376e-07 9.44373e-08)
(0.624992 -1.94774e-07 2.24901e-08)
(0.624997 -8.42191e-08 8.44819e-09)
(0.625 -3.97519e-08 1.27242e-08)
(0.625002 -2.06642e-08 1.9805e-08)
(0.625002 -1.02446e-09 1.60438e-10)
(0.625003 -1.86652e-08 1.20364e-08)
(0.625003 1.55786e-08 -8.62379e-10)
(-4.29203e-06 -2.15934e-05 2.37425e-06)
(-1.17802e-06 -1.30861e-05 1.68222e-06)
(-9.39467e-07 -1.07431e-05 1.51887e-06)
(0.634693 0.000128579 0.00208068)
(0.63502 9.30597e-05 0.00652564)
(0.648676 -0.000271333 3.55746e-05)
(0.635679 3.37715e-05 0.0114751)
(0.648613 -0.000329322 0.0001491)
(0.628358 -0.000282674 0.000109547)
(0.636639 -5.80252e-05 0.016985)
(0.648484 -0.00039622 0.000383639)
(0.628323 -0.000315919 0.000350716)
(0.626661 -0.000239862 1.27968e-05)
(0.637832 -0.00018741 0.0228306)
(0.648247 -0.000472511 0.000771732)
(0.628279 -0.000346508 0.00063657)
(0.62663 -0.000252662 4.2242e-05)