/*--------------------------------*- C++ -*----------------------------------*\
  =========                 |
  \\      /  F ield         | OpenFOAM: The Open Source CFD Toolbox
   \\    /   O peration     | Website:  https://openfoam.org
    \\  /    A nd           | Version:  7
     \\/     M anipulation  |
\*---------------------------------------------------------------------------*/
FoamFile
{
    version     2.0;
    format      ascii;
    class       volScalarField;
    location    "409";
    object      p;
}
// * * * * * * * * * * * * * * * * * * * * * * * * * * * * * * * * * * * * * //

dimensions      [0 2 -2 0 0 0 0];

internalField   nonuniform List<scalar> 
43144
(
20.1105
20.1105
20.1106
15.482
20.1104
20.1106
15.4817
20.1107
15.482
11.1607
20.1103
20.1105
15.4812
20.1107
15.4816
11.1596
20.111
15.4821
11.1622
7.96407
20.11
20.1104
15.4803
20.1106
15.4811
11.158
20.111
15.4817
11.1612
7.95972
20.1115
15.4823
11.165
7.96117
0.284047
20.1097
20.1101
15.4793
20.1105
15.4803
11.1563
20.1109
15.4812
11.1596
7.95601
20.1115
15.482
11.164
7.95701
0.118658
20.1124
15.4829
11.1702
7.95868
0.517496
0.0231485
0.513083
20.1092
20.1098
15.4781
20.1103
15.4793
11.1543
20.1108
15.4804
11.1579
7.95065
20.1115
15.4814
11.1625
7.95328
0.0306761
20.1124
15.4825
11.1693
7.95468
0.369243
-0.124418
0.416076
20.1138
15.484
11.179
7.95732
0.785103
0.617748
-0.0029318
0.414211
0.134768
20.1086
20.1093
15.4766
20.1099
15.478
11.1522
20.1106
15.4794
11.1559
7.94501
20.1113
15.4806
11.1608
7.94791
-0.0175186
20.1123
15.482
11.1679
7.95092
0.289183
-0.215037
0.363952
20.1138
15.4836
11.1783
7.95335
0.65998
0.52764
-0.0968229
0.339928
0.071603
20.1158
15.4861
11.1929
7.95829
1.10035
0.746534
0.18797
0.0126889
0.338865
0.0873143
0.101494
20.1079
20.1087
15.475
20.1095
15.4766
11.1501
20.1102
15.4781
11.1539
7.93907
20.1111
15.4796
11.1588
7.94226
-0.0472893
20.1122
15.4812
11.1662
7.94554
0.242135
-0.262662
0.335929
20.1137
15.4831
11.177
7.94955
0.588163
0.479583
-0.15948
0.288151
0.0344093
20.1158
15.4857
11.1925
7.95429
0.999064
0.668898
0.128332
-0.0474208
0.308531
0.0383636
0.0665222
20.1188
15.4897
11.2137
7.96384
1.47426
0.898579
0.25568
0.129335
0.016059
0.263599
0.0580342
0.0758656
0.035332
20.1071
20.108
15.4734
20.1089
15.475
11.148
20.1097
15.4767
11.1518
7.9333
20.1107
15.4783
11.1568
7.93632
-0.0667729
20.112
15.4801
11.1643
7.93987
0.212821
-0.292022
0.316171
20.1136
15.4823
11.1753
7.94416
0.542848
0.451546
-0.202298
0.260775
0.01395
20.1158
15.4852
11.1913
7.95043
0.935994
0.62514
0.0937769
-0.0822888
0.281262
0.00166588
0.0467814
20.1188
15.4893
11.2135
7.95979
1.39661
0.834161
0.20352
0.0959097
-0.0301668
0.256928
0.033413
0.0493702
0.017795
20.1229
15.4954
11.2433
7.97721
1.90662
1.08151
0.337856
0.164703
0.0490753
0.22072
0.0164582
0.032085
0.0576323
0.0226459
0.0220537
20.1062
20.1072
15.4716
20.1082
15.4733
11.1459
20.1092
15.4751
11.1497
7.92787
20.1103
15.4769
11.1547
7.93054
-0.079848
20.1116
15.4789
11.1622
7.93393
0.193553
-0.311191
0.3009
20.1133
15.4813
11.1735
7.93847
0.514244
0.431746
-0.230962
0.241243
0.000494149
20.1156
15.4844
11.1897
7.94504
0.893258
0.597307
0.0733645
-0.114878
0.257889
-0.0183488
0.0360795
20.1188
15.4887
11.2125
7.95587
1.34302
0.794919
0.171856
0.0775086
-0.0539034
0.25228
0.0113677
0.0301622
0.00790101
20.123
15.495
11.2433
7.97315
1.85089
1.03039
0.293903
0.135244
0.032147
0.215682
-0.0191436
0.0211136
0.0440858
0.00963526
0.0140324
20.1284
15.504
11.2832
8.0025
2.39072
1.29989
0.440054
0.207586
0.0665809
0.0282492
0.0187175
0.198111
0.010212
0.0421987
0.0132784
0.0162915
0.00869384
20.1053
20.1063
15.4699
20.1074
15.4716
11.1439
20.1085
15.4734
11.1476
7.92295
20.1097
15.4753
11.1526
7.92512
-0.0888954
20.1111
15.4775
11.1601
7.92815
0.180609
-0.324033
0.288888
20.113
15.48
11.1715
7.93252
0.495298
0.416482
-0.250202
0.226057
-0.00895236
20.1154
15.4833
11.1879
7.93934
0.865721
0.577562
0.0598051
-0.138852
0.238733
-0.0316019
0.0293506
20.1186
15.4879
11.211
7.95051
1.30393
0.76773
0.151627
0.066776
-0.0817239
0.237413
-0.00589646
0.0197624
0.00256272
20.1229
15.4945
11.2424
7.96921
1.8072
0.996061
0.265299
0.118316
0.0229095
0.21535
-0.0400186
0.0115056
0.0329148
8.94932e-05
0.00956937
20.1284
15.5036
11.2834
7.99852
2.35362
1.26131
0.404638
0.18254
0.0515702
0.0204584
0.0113631
0.191444
-0.0132431
0.0365449
0.00664787
0.0104161
0.00539674
20.1353
15.5162
11.3344
8.04407
2.91363
1.55613
0.566626
0.260997
0.0878197
0.0361355
0.0112433
0.0344515
0.0135197
0.166158
-0.00189403
0.00533846
0.011878
0.00632158
0.00550947
20.1043
20.1053
15.4682
20.1065
15.4699
11.142
20.1077
15.4717
11.1455
7.9186
20.109
15.4736
11.1505
7.92019
-0.0952847
20.1106
15.4759
11.158
7.92272
0.171646
-0.332896
0.279484
20.1125
15.4786
11.1694
7.92674
0.482535
0.404502
-0.263269
0.214091
-0.0157076
20.1151
15.4821
11.1859
7.93339
0.847257
0.562346
0.0502508
-0.156009
0.223316
-0.0409262
0.0246263
20.1184
15.4869
11.2093
7.94481
1.27795
0.748204
0.138009
0.0599409
-0.101153
0.221792
-0.0188111
0.0131357
-0.000637172
20.1228
15.4937
11.2411
7.96392
1.7728
0.970106
0.245537
0.107601
0.0175558
0.203733
-0.0654281
-0.000972351
0.0241204
-0.00507361
0.00715869
20.1284
15.5031
11.2827
7.99463
2.31973
1.23215
0.379428
0.16714
0.0430634
0.0162868
0.00476052
0.189641
-0.0299938
0.0318973
0.00106095
0.0061372
0.00357837
20.1353
15.5158
11.3347
8.04028
2.89094
1.52843
0.539565
0.240593
0.0749706
0.0292006
0.00802955
0.031632
0.00799127
0.16164
-0.0132901
0.00272143
0.0088955
0.00392588
0.00425536
15.5322
11.3969
8.1055
3.45683
1.85043
0.720971
0.32742
0.114337
0.0456933
0.0144906
0.00647347
0.00136461
0.0307647
0.00746629
0.116449
-0.0117258
0.00817464
0.00448467
0.00461043
0.00306343
20.1032
20.1043
15.4666
20.1055
15.4682
11.1401
20.1068
15.4699
11.1436
7.91483
20.1082
15.4719
11.1485
7.91584
-0.099881
20.1099
15.4742
11.156
7.9178
0.165311
-0.339134
0.272264
20.1119
15.477
11.1673
7.92131
0.47368
0.395124
-0.272377
0.204729
-0.0205217
20.1146
15.4807
11.1839
7.92761
0.834747
0.550427
0.0434085
-0.168056
0.211103
-0.0475869
0.0211371
20.1181
15.4857
11.2074
7.93889
1.26022
0.733102
0.12835
0.055117
-0.115491
0.207746
-0.0282669
0.00846471
-0.00267557
20.1225
15.4927
11.2395
7.95828
1.74896
0.951037
0.231965
0.100656
0.0142998
0.191524
-0.0826973
-0.0119556
0.0176235
-0.00821769
0.00574427
20.1282
15.5024
11.2816
7.98949
2.29082
1.20808
0.360533
0.156579
0.0377171
0.0138674
-0.00616414
0.178999
-0.0508631
0.0257943
-0.00324642
0.00381634
0.0025989
20.1352
15.5153
11.3342
8.03655
2.8661
1.50447
0.518018
0.226888
0.0672102
0.0253555
0.00632929
0.0289084
0.00155301
0.161031
-0.0230416
0.000123702
0.00640179
0.0021864
0.00356046
15.5318
11.3972
8.10205
3.44422
1.83139
0.701406
0.311632
0.103786
0.0397302
0.0116241
0.00524906
0.000370024
0.0291774
0.00495495
0.116288
-0.0141959
0.00705211
0.00327301
0.00370195
0.00260451
15.5517
11.4688
8.18831
3.99874
2.17965
0.905267
0.408985
0.147449
0.0576209
0.0184256
0.00770083
0.00341312
0.00634427
-0.000336614
0.0260782
-0.000480999
0.0596103
-0.0142088
0.00293391
0.00390894
0.00273795
0.00347246
20.1022
20.1033
15.4651
20.1045
15.4665
11.1385
20.1058
15.4682
11.1418
7.91162
20.1073
15.4702
11.1465
7.91207
-0.103208
20.1091
15.4725
11.1539
7.91345
0.160749
-0.343603
0.266813
20.1112
15.4753
11.1652
7.91639
0.467412
0.387917
-0.278851
0.197553
-0.0238886
20.114
15.4791
11.1818
7.92219
0.826032
0.541095
0.0385195
-0.176641
0.20155
-0.0523195
0.018487
20.1176
15.4843
11.2054
7.93313
1.24809
0.721276
0.121413
0.0515529
-0.125846
0.196162
-0.0350878
0.00501374
-0.00396118
20.1222
15.4915
11.2377
7.9524
1.73228
0.936155
0.222232
0.0957137
0.0122023
0.179519
-0.095545
-0.0206874
0.0127827
-0.0102299
0.00486445
20.128
15.5014
11.2801
7.98395
2.26968
1.18978
0.347167
0.149563
0.0343972
0.0124267
-0.0155729
0.168371
-0.0660261
0.0203612
-0.00628677
0.00242932
0.00202089
20.1351
15.5146
11.3333
8.03165
2.84304
1.48291
0.50045
0.21668
0.0619326
0.0229373
0.00534557
0.0238354
-0.00876342
0.152811
-0.036151
-0.00290003
0.0044892
0.00124498
0.00317907
15.5314
11.3968
8.09857
3.42708
1.81241
0.683635
0.299773
0.0968499
0.0362137
0.0100563
0.00459879
-0.00119605
0.0267644
0.000535877
0.119593
-0.0174289
0.00587629
0.00225674
0.00303868
0.00234482
15.5513
11.4691
8.18531
3.99249
2.16701
0.891854
0.397402
0.13922
0.0526964
0.015955
0.0066073
0.00296484
0.00598643
-0.000648712
0.0258958
0.000468363
0.061802
-0.0135552
0.00248635
0.0034503
0.00240549
0.0033027
15.5737
11.5469
8.29082
4.51822
2.53657
1.11954
0.50739
0.188334
0.0725179
0.023337
0.00918755
0.00385848
0.00359756
0.00215452
0.00552772
-0.00213913
0.0194129
-0.00653773
0.0157258
-0.0114109
0.00332221
0.00248553
0.00335615
0.00461611
20.1013
20.1023
15.4637
20.1035
15.465
11.137
20.1048
15.4666
11.1401
7.90892
20.1063
15.4685
11.1447
7.90886
-0.105608
20.1082
15.4707
11.152
7.90968
0.157439
-0.346819
0.262768
20.1104
15.4736
11.1632
7.91204
0.462889
0.382467
-0.28353
0.192144
-0.0261962
20.1133
15.4774
11.1798
7.91727
0.819845
0.533914
0.0350869
-0.182843
0.19423
-0.0556164
0.016479
20.117
15.4827
11.2034
7.92772
1.23958
0.712008
0.116438
0.048844
-0.133468
0.186946
-0.0399478
0.00239901
-0.00472324
20.1218
15.4901
11.2357
7.94669
1.72068
0.924474
0.215206
0.0920574
0.0108661
0.169144
-0.104983
-0.0271998
0.00914859
-0.0114976
0.00432698
20.1277
15.5002
11.2784
7.97819
2.25438
1.17528
0.33742
0.144509
0.032225
0.0115187
-0.0232502
0.157504
-0.0775978
0.0158588
-0.00837458
0.00156127
0.00165269
20.1349
15.5136
11.332
8.02632
2.82502
1.46575
0.487513
0.209662
0.0585653
0.021465
0.00475708
0.0192385
-0.0173464
0.14357
-0.0474988
-0.0054271
0.00316321
0.000678148
0.00294969
15.5307
11.396
8.09403
3.40967
1.79383
0.66785
0.290157
0.091737
0.0338226
0.00907208
0.00421601
-0.00367495
0.0220806
-0.00776142
0.116121
-0.02254
0.0045519
0.00148248
0.00267273
0.00219691
15.5509
11.4688
8.18219
3.98135
2.15252
0.877765
0.387469
0.133187
0.0495413
0.0145193
0.00600733
0.00272169
0.00532309
-0.00188796
0.0244688
-2.01286e-05
0.0661738
-0.013927
0.001996
0.00306248
0.00215802
0.0031995
15.5734
11.5472
8.28833
4.51556
2.52835
1.11076
0.499304
0.182255
0.0686525
0.0212909
0.00824359
0.00345788
0.00343176
0.00201756
0.00546925
-0.00188795
0.0206331
-0.00366154
0.0180643
-0.0107888
0.00315519
0.00231788
0.00323262
0.00454487
11.6269
8.40791
4.99764
2.90982
1.36083
0.62342
0.238004
0.0909274
0.0294741
0.0110428
0.00439792
0.00375675
0.00466345
0.00303038
0.00181442
0.00462985
-0.00434988
0.0124829
-0.00716629
-0.00194432
-0.00561133
0.00227454
0.00326753
0.00457255
0.0066924
20.1004
20.1014
15.4624
20.1025
15.4636
11.1357
20.1038
15.4651
11.1386
7.90668
20.1053
15.4669
11.143
7.90616
-0.107317
20.1072
15.4691
11.1502
7.90647
0.155044
-0.349121
0.259811
20.1095
15.4719
11.1613
7.90827
0.4596
0.378415
-0.286928
0.18814
-0.0277311
20.1125
15.4757
11.1777
7.91292
0.815367
0.528472
0.0327223
-0.187386
0.18871
-0.0578641
0.0149742
20.1163
15.4811
11.2013
7.92281
1.23351
0.704861
0.112928
0.0467884
-0.139118
0.179831
-0.0433438
0.000423545
-0.00509366
20.1212
15.4885
11.2337
7.94132
1.71246
0.915298
0.210138
0.0892754
0.0100598
0.160619
-0.112087
-0.0319097
0.00639322
-0.0122423
0.00402518
20.1272
15.4988
11.2765
7.97257
2.2435
1.16382
0.330319
0.140755
0.030823
0.0109571
-0.0290784
0.147833
-0.0863051
0.0123104
-0.00974365
0.00103056
0.00141615
20.1345
15.5125
11.3303
8.02076
2.81142
1.45184
0.477852
0.204514
0.0563179
0.0205202
0.00437821
0.0152481
-0.0243439
0.133612
-0.0569979
-0.00735522
0.00226694
0.000314615
0.00280025
15.5298
11.3949
8.08903
3.39498
1.77819
0.655614
0.283239
0.0883523
0.0323246
0.0084707
0.00398286
-0.00585438
0.0178723
-0.0152602
0.109357
-0.028141
0.00346988
0.000943205
0.0024482
0.00210446
15.5502
11.4681
8.1781
3.96888
2.13713
0.864124
0.37869
0.128356
0.0472189
0.0135449
0.00562475
0.00257366
0.00428466
-0.00412238
0.0208152
-0.00424831
0.0668436
-0.0149457
0.00145744
0.00276266
0.00201639
0.00313351
15.573
11.5469
8.28564
4.50868
2.51765
1.10004
0.491277
0.177173
0.0658944
0.0200001
0.00769359
0.00323355
0.00333493
0.00174402
0.004996
-0.00262096
0.0209073
-0.00132474
0.0206784
-0.0107267
0.0029671
0.00217238
0.00313473
0.00449476
11.6271
8.40592
4.99678
2.90452
1.35527
0.618001
0.233739
0.0880516
0.0278633
0.0102594
0.00405183
0.00360841
0.00459415
0.00298191
0.00179366
0.00480202
-0.00364794
0.0142751
-0.00465923
-0.000395444
-0.00531541
0.00221357
0.00320513
0.00451928
0.00665807
8.53173
5.42471
3.28487
1.62269
0.75642
0.29706
0.11333
0.0370644
0.013361
0.00507108
0.00394952
0.00472371
0.00670916
0.00216863
0.00290096
0.00146399
0.0034492
-0.00606986
0.00758937
-0.00409356
-0.00240395
0.000950805
0.00319671
0.00454182
0.00667729
0.00859931
20.0996
20.1005
15.4613
20.1015
15.4624
11.1345
20.1028
15.4637
11.1373
7.90483
20.1043
15.4653
11.1415
7.90392
-0.108506
20.1062
15.4674
11.1485
7.90377
0.153331
-0.350742
0.257682
20.1086
15.4702
11.1594
7.90506
0.45721
0.375446
-0.289386
0.185221
-0.0287116
20.1116
15.474
11.1758
7.90916
0.812097
0.524416
0.0311385
-0.190723
0.184619
-0.0593484
0.0138786
20.1155
15.4794
11.1993
7.91847
1.22909
0.699431
0.110494
0.0452442
-0.14334
0.174444
-0.0456697
-0.00105158
-0.0051763
20.1205
15.4869
11.2317
7.93644
1.70655
0.908202
0.20654
0.0871602
0.00965037
0.153915
-0.117454
-0.0352278
0.00431543
-0.0125956
0.00389879
20.1267
15.4973
11.2745
7.96728
2.23567
1.15478
0.325157
0.137892
0.0299586
0.0106338
-0.0333803
0.139709
-0.0929915
0.0095635
-0.010576
0.000734897
0.0012692
20.1341
15.5112
11.3285
8.0153
2.80143
1.44073
0.470715
0.200661
0.0548439
0.0199259
0.00413282
0.0120216
-0.0297003
0.124467
-0.0645962
-0.00869779
0.00168996
8.10454e-05
0.00270061
15.5286
11.3934
8.08376
3.38328
1.76514
0.646186
0.278037
0.0860346
0.0313418
0.0080774
0.00382941
-0.00759867
0.0141868
-0.0216008
0.100841
-0.0339149
0.00265312
0.000572765
0.00230102
0.00204319
15.5494
11.4671
8.17353
3.95741
2.12335
0.852882
0.372008
0.125001
0.0457073
0.0129328
0.00538696
0.00248019
0.00337148
-0.00613734
0.0171537
-0.00952968
0.0640336
-0.0161925
0.00101933
0.00255124
0.00192629
0.00308742
15.5724
11.5464
8.28208
4.50014
2.50539
1.08872
0.483542
0.172745
0.0636919
0.019052
0.00731501
0.00308622
0.00326941
0.00132851
0.00409709
-0.00437378
0.0191682
-0.00122448
0.0220625
-0.0110077
0.0027591
0.00205719
0.00307177
0.00445834
11.6269
8.40367
4.99269
2.89682
1.3474
0.611747
0.22961
0.085714
0.0267319
0.00976412
0.00384619
0.00351903
0.00454711
0.00287794
0.00160474
0.00456154
-0.00369824
0.0157443
-0.00210548
0.000832445
-0.00524436
0.0021419
0.00314678
0.00447175
0.00662812
8.53019
5.42464
3.28143
1.61923
0.752881
0.294199
0.111296
0.0358627
0.0127426
0.00478354
0.00382111
0.00466172
0.00667625
0.00215044
0.00289581
0.00153026
0.00378625
-0.00523994
0.00896929
-0.00276094
-0.00165307
0.00107075
0.00317384
0.00451291
0.00664934
0.00858055
5.7928
3.64593
1.89548
0.903864
0.365412
0.140034
0.0463118
0.0162283
0.00591219
0.00419007
0.00479676
0.00673048
0.00860243
0.00316272
0.00212265
0.00276401
0.00102463
0.00225483
-0.00584162
0.0051395
-0.000848561
0.0021851
0.00673099
0.00452047
0.00666944
0.00859691
0.00990564
20.0988
20.0996
15.4603
20.1006
15.4613
11.1335
20.1018
15.4625
11.1361
7.90333
20.1033
15.464
11.1402
7.90207
-0.109307
20.1052
15.4659
11.147
7.90152
0.152131
-0.351852
0.256174
20.1076
15.4686
11.1578
7.90236
0.455492
0.373303
-0.291139
0.183125
-0.0292981
20.1106
15.4723
11.174
7.90595
0.809709
0.521437
0.0301164
-0.193159
0.181629
-0.0602864
0.0131117
20.1146
15.4776
11.1974
7.91471
1.22585
0.695373
0.10885
0.0441156
-0.146485
0.170441
-0.0472167
-0.00212063
-0.00503165
20.1197
15.4852
11.2297
7.93212
1.70222
0.902792
0.204026
0.0855666
0.00953314
0.148781
-0.121522
-0.0375155
0.00276663
-0.0126614
0.00390316
20.126
15.4957
11.2725
7.96246
2.22996
1.14777
0.321461
0.135708
0.0294975
0.0104881
-0.0364626
0.13323
-0.0981279
0.00747417
-0.0109987
0.000614487
0.00119166
20.1335
15.5097
11.3266
8.01013
2.79408
1.4319
0.465468
0.197708
0.0539134
0.0195736
0.00397832
0.00946374
-0.0337156
0.116646
-0.0706439
-0.00954576
0.00135076
-6.31368e-05
0.0026337
15.5274
11.3916
8.07855
3.37435
1.75452
0.63908
0.274093
0.0844827
0.0307114
0.00781983
0.00372639
-0.00883566
0.0111751
-0.0265698
0.0924807
-0.0393736
0.00208854
0.000325218
0.00220283
0.00200375
15.5483
11.4657
8.16867
3.9477
2.11141
0.843874
0.366818
0.122627
0.0446874
0.0125246
0.0052281
0.0024177
0.00263461
-0.00777685
0.0137763
-0.0147192
0.0586501
-0.0179145
0.0006866
0.00240333
0.00186628
0.00305473
15.5716
11.5455
8.27803
4.49152
2.49368
1.07874
0.477253
0.169484
0.062186
0.018434
0.00707338
0.00299159
0.0032234
0.000963572
0.00326771
-0.00612603
0.016626
-0.00297561
0.0220313
-0.011246
0.00258894
0.00197406
0.00302713
0.00443319
11.6264
8.40066
4.987
2.88739
1.33838
0.605181
0.225691
0.0836857
0.0258309
0.00939581
0.003701
0.00345455
0.00451154
0.00271925
0.00125347
0.00387913
-0.00465851
0.0159797
-0.000104214
0.00150329
-0.00538515
0.00206206
0.00309624
0.00443701
0.00660547
8.52836
5.42222
3.27599
1.61362
0.748164
0.290965
0.109382
0.0349008
0.0123075
0.00459836
0.00373917
0.0046185
0.00664831
0.00210984
0.0028252
0.00143379
0.00382568
-0.0048092
0.0104832
-0.00123718
-0.00100596
0.00110595
0.00314427
0.0044825
0.00662061
0.00856027
5.79298
3.64368
1.89332
0.901568
0.36355
0.138657
0.0454603
0.0157654
0.00568493
0.00408307
0.00474305
0.00670121
0.00858509
0.00315554
0.00211988
0.00279106
0.0011512
0.00260459
-0.00521481
0.0058805
-0.000279882
0.00246538
0.00677088
0.00450621
0.00665026
0.00857889
0.0098951
3.97851
2.16733
1.06118
0.442011
0.171052
0.0573527
0.0197225
0.00695254
0.00449063
0.00488806
0.00675656
0.00860648
0.0099025
0.00451153
0.003148
0.00207621
0.00258713
0.000604258
0.00141272
-0.00286126
0.00418281
0.00274277
0.00721207
0.0145159
0.0066696
0.0085996
0.00990895
0.0104702
20.0982
20.0989
15.4595
20.0998
15.4603
11.1327
20.1009
15.4613
11.1352
7.90212
20.1023
15.4627
11.1391
7.90057
-0.109825
20.1042
15.4645
11.1457
7.89968
0.151316
-0.352585
0.255124
20.1065
15.4671
11.1563
7.90011
0.45428
0.371779
-0.292361
0.181646
-0.0296096
20.1096
15.4707
11.1723
7.90325
0.807982
0.519279
0.0294949
-0.194913
0.179475
-0.0608374
0.0126057
20.1137
15.476
11.1955
7.9115
1.22346
0.69238
0.107777
0.0433209
-0.148806
0.167512
-0.0482054
-0.00286431
-0.00473937
20.1188
15.4835
11.2278
7.92838
1.69901
0.898731
0.202311
0.0843963
0.0096464
0.144938
-0.124584
-0.0390468
0.00164374
-0.0125006
0.00397843
20.1252
15.494
11.2705
7.95818
2.22574
1.14239
0.318854
0.134057
0.0293345
0.0104748
-0.0386181
0.128221
-0.102069
0.0059099
-0.0111173
0.000624702
0.00117002
20.1328
15.5081
11.3246
8.00541
2.78863
1.42499
0.46167
0.195446
0.0533924
0.0194017
0.00389417
0.0074822
-0.0366366
0.110335
-0.0754128
-0.00999328
0.00119332
-0.000137987
0.00259087
15.5259
11.3898
8.07358
3.36756
1.74599
0.633775
0.271047
0.0834767
0.0303259
0.00765497
0.0036566
-0.00962413
0.00875225
-0.0303601
0.0851127
-0.0442168
0.00173759
0.000167829
0.00213725
0.00198113
15.5471
11.4641
8.16379
3.93989
2.10147
0.836898
0.362808
0.120996
0.0440172
0.0122535
0.00512044
0.00237716
0.00210736
-0.00894617
0.0109224
-0.0191091
0.05234
-0.0201525
0.000449572
0.00230116
0.00182768
0.00303385
15.5706
11.5442
8.27364
4.48369
2.48309
1.07035
0.47217
0.167084
0.0611342
0.0180112
0.00690889
0.00292751
0.0031906
0.000665781
0.00257536
-0.00762659
0.013829
-0.00584428
0.0204398
-0.0114682
0.00245778
0.00191555
0.00299531
0.0044206
11.6256
8.39715
4.98069
2.87777
1.32982
0.599439
0.2226
0.0822129
0.0252145
0.00915209
0.00360555
0.0034088
0.00448694
0.0025788
0.000927566
0.00316993
-0.00589615
0.0151618
0.000936274
0.00186365
-0.00554955
0.001996
0.00305656
0.00441279
0.00659528
8.52587
5.41847
3.26893
1.60668
0.742784
0.287623
0.107576
0.034069
0.0119573
0.00445763
0.00367628
0.0045843
0.00662678
0.00204882
0.00269228
0.00117129
0.00346645
-0.004966
0.0116473
0.000322634
-0.000631347
0.00104086
0.00310919
0.00445477
0.0065989
0.00854739
5.79153
3.63987
1.8894
0.898094
0.361101
0.137145
0.0446702
0.0153944
0.00552226
0.00400926
0.00470372
0.00667594
0.00856648
0.00313796
0.00209161
0.00275604
0.00115975
0.00281838
-0.00469775
0.00685664
0.000417125
0.00276231
0.0067794
0.00448769
0.00662906
0.00855886
0.00988108
3.97702
2.16596
1.05967
0.440813
0.170145
0.0567752
0.019393
0.00678219
0.00440571
0.00484324
0.00673132
0.00859137
0.00989334
0.00450198
0.00314631
0.00208502
0.00263547
0.00073043
0.00165908
-0.00250116
0.00451327
0.00297322
0.00729993
0.0145266
0.00665357
0.0085823
0.00989638
0.010463
2.42591
1.22199
0.524703
0.205971
0.070202
0.0238964
0.00822034
0.00486239
0.00500232
0.00678951
0.00861183
0.00989862
0.0104661
0.00667292
0.00450823
0.00313273
0.00201835
0.00240452
0.000366213
0.00129622
0.000987817
0.00478269
0.00723885
0.0147323
0.0240923
0.00861026
0.00991594
0.0104742
0.0106015
20.0976
20.0983
15.4588
20.099
15.4595
11.1321
20.1001
15.4604
11.1344
7.90116
20.1014
15.4616
11.1381
7.89936
-0.110141
20.1032
15.4633
11.1445
7.89818
0.150783
-0.353043
0.254408
20.1055
15.4657
11.155
7.89827
0.453448
0.370714
-0.293187
0.180621
-0.0297345
20.1086
15.4692
11.1708
7.901
0.806752
0.517739
0.0291541
-0.196146
0.177949
-0.0611194
0.0123008
20.1126
15.4743
11.1939
7.90881
1.22173
0.690205
0.107112
0.0427915
-0.150487
0.165402
-0.0487971
-0.0033503
-0.00436307
20.1178
15.4818
11.2259
7.92518
1.69664
0.895725
0.201176
0.0835664
0.00991095
0.142112
-0.126859
-0.0400319
0.000860107
-0.0121937
0.00410341
20.1243
15.4923
11.2686
7.95446
2.22258
1.13833
0.317055
0.132837
0.0294062
0.0105352
-0.0400771
0.124447
-0.105063
0.00477256
-0.0109972
0.00070554
0.00119662
20.132
15.5064
11.3226
8.0012
2.78454
1.41967
0.458959
0.193727
0.0531755
0.0193645
0.00386662
0.00597741
-0.0387063
0.105418
-0.0791408
-0.0101361
0.00117308
-0.000156981
0.00256654
15.5244
11.3878
8.06901
3.3624
1.73925
0.629879
0.268699
0.0828852
0.0301235
0.0075618
0.00361128
-0.0100385
0.00684936
-0.0331599
0.0790577
-0.048302
0.00156172
8.17999e-05
0.00209568
0.0019729
15.5457
11.4623
8.15909
3.93373
2.09335
0.831583
0.359676
0.119907
0.0435934
0.0120767
0.00504669
0.00235352
0.0017716
-0.0096926
0.00858119
-0.0225913
0.0462388
-0.0227231
0.00029219
0.00223164
0.00180575
0.00302412
15.5695
11.5427
8.26917
4.47702
2.474
1.06364
0.46814
0.16538
0.0604223
0.0177251
0.00679601
0.00288549
0.00316954
0.00044492
0.00207054
-0.00873561
0.011218
-0.00892961
0.0176714
-0.0118282
0.00236166
0.00187675
0.00297497
0.00442322
11.6244
8.39329
4.97451
2.86867
1.32225
0.594576
0.220216
0.0811404
0.0247792
0.0089821
0.00353984
0.00337593
0.00447465
0.00246254
0.000650272
0.00254088
-0.00710567
0.0135503
0.000821688
0.00187019
-0.00563487
0.00194546
0.00302707
0.00440071
0.00660359
8.52289
5.41389
3.26126
1.59958
0.737709
0.28478
0.10617
0.0334652
0.0117144
0.0043621
0.00363098
0.00456058
0.00661737
0.00199453
0.00256775
0.000897427
0.00296901
-0.0054663
0.0122843
0.00175051
-0.000372495
0.000933788
0.00307827
0.00443423
0.00658921
0.00855165
5.789
3.63465
1.88417
0.893815
0.358351
0.135593
0.0439274
0.0150706
0.00538892
0.00394892
0.00467121
0.00665609
0.00855492
0.00311097
0.00204039
0.00265713
0.00102408
0.00276348
-0.00440048
0.00787679
0.00118288
0.00298046
0.00674874
0.0044675
0.00661165
0.00854634
0.00987481
3.97433
2.16322
1.05714
0.439006
0.168989
0.0561489
0.0190871
0.00664351
0.00434085
0.00480817
0.00670885
0.00857509
0.00988075
0.00448792
0.00313352
0.00206984
0.0026402
0.000802381
0.00187433
-0.0021146
0.00499805
0.00325466
0.00740841
0.0145228
0.00663638
0.00856453
0.00988202
0.0104519
2.42502
1.22097
0.523925
0.205379
0.069822
0.0236715
0.00809893
0.00479835
0.00496668
0.00676857
0.00859911
0.00989094
0.0104601
0.00665582
0.00450004
0.00313501
0.00203498
0.0024504
0.000444149
0.00144564
0.00116316
0.00492847
0.00733213
0.0147571
0.0240922
0.00858939
0.00989997
0.0104646
0.0105944
1.37889
0.610274
0.243877
0.084702
0.0287574
0.0097347
0.00531539
0.00514382
0.00683119
0.00861919
0.00989445
0.010461
0.0105993
0.00861986
0.00667506
0.00450541
0.003113
0.00195919
0.00225218
0.000393234
0.00215145
0.00360523
0.00756163
0.0147743
0.0242322
0.031189
0.00993078
0.0104811
0.0106039
0.0105887
20.0972
20.0977
15.4583
20.0984
15.4588
11.1315
20.0993
15.4596
11.1337
7.90039
20.1006
15.4606
11.1373
7.8984
-0.110317
20.1023
15.4622
11.1436
7.89697
0.150452
-0.353307
0.253932
20.1046
15.4644
11.1538
7.89677
0.452897
0.369985
-0.293722
0.179927
-0.0297381
20.1076
15.4678
11.1695
7.89915
0.805899
0.516659
0.0290051
-0.196989
0.176885
-0.06122
0.0121442
20.1116
15.4728
11.1924
7.90656
1.22048
0.688645
0.106734
0.0424672
-0.151677
0.163907
-0.049112
-0.00363829
-0.00395084
20.1168
15.4802
11.2243
7.92248
1.69489
0.893529
0.200458
0.0830075
0.0102636
0.140071
-0.128518
-0.040626
0.000343956
-0.0118044
0.00425787
20.1233
15.4907
11.2668
7.95128
2.22022
1.13531
0.315845
0.131965
0.0296341
0.0106477
-0.0410242
0.121658
-0.107302
0.00397644
-0.0107228
0.000835942
0.00126237
20.1311
15.5048
11.3207
7.99753
2.78144
1.41563
0.457063
0.192449
0.053198
0.0194047
0.00388781
0.0048728
-0.0401228
0.101692
-0.0820112
-0.0100383
0.00123088
-0.000127868
0.00255697
15.5227
11.3859
8.06491
3.35845
1.73402
0.62706
0.266903
0.082604
0.0300582
0.00752621
0.00358478
-0.0101647
0.00538807
-0.0351702
0.0742836
-0.0516338
0.00152401
5.37663e-05
0.00207259
0.00197717
15.5442
11.4604
8.15472
3.9289
2.08686
0.827609
0.357239
0.119234
0.0433549
0.0119729
0.00499797
0.00234432
0.00160039
-0.0100825
0.00671778
-0.0252335
0.0409419
-0.0253494
0.000202456
0.00218682
0.00179807
0.00302518
15.5681
11.541
8.26481
4.4715
2.46641
1.05838
0.46494
0.164204
0.0599553
0.0175345
0.00671768
0.00286045
0.00315955
0.000293893
0.0017453
-0.00946022
0.00896708
-0.0117207
0.0143052
-0.0124189
0.00229386
0.00185412
0.00296554
0.00444337
11.623
8.38928
4.96891
2.86057
1.31593
0.590592
0.218458
0.0803881
0.0244773
0.00886346
0.00349616
0.00335465
0.00447732
0.00237392
0.000439338
0.00206158
-0.0080896
0.01158
-0.000156748
0.00145412
-0.00564192
0.00191034
0.00300769
0.0044035
0.00663637
8.51955
5.40906
3.25365
1.59295
0.733181
0.282467
0.105094
0.0330216
0.0115396
0.00429489
0.00359808
0.00454875
0.00662607
0.00195037
0.00246018
0.000649707
0.00246347
-0.00613597
0.0122124
0.0027458
-0.000161059
0.000849159
0.00305373
0.00442402
0.00659764
0.00858265
5.78564
3.62867
1.87846
0.889467
0.355818
0.134287
0.0433494
0.0148326
0.00529444
0.00390443
0.00464853
0.00664785
0.00856005
0.00308571
0.00199242
0.00255298
0.000838783
0.00254058
-0.00426456
0.00884811
0.00201015
0.00314231
0.00668978
0.00445185
0.00660445
0.00855069
0.0098877
3.97049
2.15935
1.05381
0.436809
0.167698
0.0555084
0.0187972
0.00652065
0.00428422
0.00477784
0.00669093
0.0085654
0.00987578
0.00447131
0.00311068
0.00203144
0.00258898
0.000787059
0.00195876
-0.00173763
0.00557609
0.00356171
0.007508
0.0145031
0.0066225
0.00855437
0.00987571
0.010447
2.42309
1.21912
0.522609
0.204515
0.0693413
0.0234279
0.0079846
0.00474302
0.00493627
0.00674917
0.00858533
0.00988038
0.0104502
0.00663943
0.0044876
0.00312732
0.00203436
0.00247837
0.000510698
0.0016032
0.00138933
0.00514248
0.00744828
0.0147919
0.0240832
0.00857083
0.00988491
0.0104531
0.0105834
1.37817
0.609754
0.243484
0.0844542
0.028608
0.00965178
0.00526939
0.00511692
0.00681468
0.00860897
0.00988831
0.0104561
0.0105931
0.00859402
0.00665703
0.00449816
0.00311752
0.00197487
0.00227862
0.000432089
0.00223565
0.00369176
0.00763253
0.0148054
0.0242294
0.0311818
0.00990793
0.0104675
0.0105954
0.0105805
0.694799
0.283351
0.100485
0.034248
0.0114983
0.00585644
0.0053164
0.00688333
0.00862925
0.00989008
0.0104553
0.0105964
0.0105886
0.00994303
0.00862493
0.00667745
0.00450225
0.00308838
0.00189978
0.00210013
0.00076841
0.00305097
0.00647562
0.0145142
0.024355
0.03133
0.0352484
0.0104949
0.0106087
0.0105891
0.0105588
20.0968
20.0972
15.4578
20.0978
15.4582
11.1311
20.0987
15.4589
11.1331
7.89979
20.0999
15.4598
11.1366
7.89763
-0.110403
20.1015
15.4612
11.1428
7.896
0.150261
-0.35344
0.253625
20.1037
15.4633
11.1528
7.89556
0.452548
0.369498
-0.29405
0.17947
-0.0296687
20.1066
15.4665
11.1684
7.89765
0.805324
0.515914
0.0289818
-0.197543
0.17616
-0.0612037
0.012091
20.1106
15.4714
11.1911
7.90471
1.2196
0.687545
0.106555
0.0422947
-0.152491
0.162867
-0.0492389
-0.00378082
-0.00353911
20.1158
15.4787
11.2228
7.92024
1.69362
0.891945
0.200037
0.0826585
0.0106561
0.138624
-0.129697
-0.0409458
3.28951e-05
-0.0113808
0.00443224
20.1223
15.4891
11.2651
7.94859
2.21846
1.13309
0.315064
0.131371
0.0299554
0.0107916
-0.0415993
0.119635
-0.108943
0.00344998
-0.0103582
0.000995594
0.0013589
20.1302
15.5031
11.3189
7.99438
2.77908
1.4126
0.455766
0.191527
0.0533822
0.0195001
0.00394863
0.00409463
-0.0410514
0.0989237
-0.0841802
-0.00978261
0.00134564
-5.97438e-05
0.00255969
15.5211
11.384
8.06131
3.35541
1.73001
0.625055
0.265557
0.082567
0.0300746
0.00754002
0.00357333
-0.0100605
0.00430682
-0.0365627
0.0706312
-0.0542765
0.00156874
7.55651e-05
0.0020642
0.0019923
15.5426
11.4585
8.15078
3.9251
2.08175
0.824682
0.355359
0.118878
0.043256
0.0119277
0.00496853
0.00234766
0.00156395
-0.0101958
0.00527403
-0.0271722
0.0366187
-0.0277931
0.000169697
0.00216125
0.00180281
0.00303629
15.5667
11.5391
8.2607
4.46702
2.46024
1.05437
0.462419
0.163442
0.059675
0.017418
0.00666496
0.0028499
0.00316029
0.000205724
0.0015787
-0.00984756
0.00712707
-0.0140161
0.0108848
-0.0132366
0.00224911
0.00184554
0.0029667
0.00448272
11.6213
8.38529
4.96403
2.85362
1.31083
0.587359
0.217198
0.079875
0.024271
0.0087798
0.00346948
0.00334431
0.0044973
0.00230964
0.000292478
0.00174322
-0.00877836
0.00961554
-0.00158254
0.000625521
-0.00562282
0.00188931
0.00299835
0.00442355
0.00669889
8.51599
5.40439
3.24661
1.58716
0.729325
0.280682
0.104308
0.0327046
0.0114149
0.00424938
0.00357656
0.00455151
0.00665885
0.00191879
0.00237602
0.000452743
0.00203804
-0.00681241
0.0114849
0.00317562
-1.23019e-05
0.000827919
0.00303703
0.00442725
0.00663019
0.00864931
5.78185
3.62245
1.87281
0.885367
0.353633
0.133232
0.0429047
0.0146547
0.00522607
0.00387164
0.00463725
0.00665713