/*--------------------------------*- C++ -*----------------------------------*\
  =========                 |
  \\      /  F ield         | OpenFOAM: The Open Source CFD Toolbox
   \\    /   O peration     | Website:  https://openfoam.org
    \\  /    A nd           | Version:  7
     \\/     M anipulation  |
\*---------------------------------------------------------------------------*/
FoamFile
{
    version     2.0;
    format      ascii;
    class       volVectorField;
    location    "409";
    object      U;
}
// * * * * * * * * * * * * * * * * * * * * * * * * * * * * * * * * * * * * * //

dimensions      [0 1 -1 0 0 0 0];

internalField   nonuniform List<vector> 
43144
(
(0.628511 5.47734e-06 -0.000126431)
(0.628526 3.05569e-05 -0.000127328)
(0.628508 5.33382e-06 -0.000405409)
(0.651824 0.000104778 -0.000129434)
(0.628548 6.77658e-05 -0.00012782)
(0.628524 3.03347e-05 -0.000408257)
(0.651877 0.000260726 -0.000127557)
(0.628503 5.01895e-06 -0.000738263)
(0.651759 0.00010508 -0.000441112)
(0.649416 0.000303413 -0.0021737)
(0.628581 0.000104496 -0.000128104)
(0.628546 6.76526e-05 -0.000409808)
(0.651954 0.000367763 -0.000126756)
(0.628518 2.98456e-05 -0.000743281)
(0.651811 0.000261163 -0.00043512)
(0.649689 0.000742805 -0.00221894)
(0.62849 4.43329e-06 -0.00113752)
(0.651622 0.000105752 -0.000886612)
(0.649435 0.000296015 -0.00689595)
(0.954698 0.00134449 -0.000387761)
(0.628622 0.000143051 -0.000128358)
(0.628579 0.000104426 -0.000410735)
(0.652041 0.000462949 -0.000126944)
(0.62854 6.73995e-05 -0.000746009)
(0.651887 0.000367871 -0.000432674)
(0.649923 0.000909123 -0.00224215)
(0.628505 2.89327e-05 -0.00114474)
(0.651671 0.000262121 -0.000876061)
(0.649703 0.000731672 -0.00703511)
(0.963101 0.00236084 -0.000599003)
(0.628464 3.47413e-06 -0.00160614)
(0.651365 0.000106994 -0.00149873)
(0.649447 0.000280671 -0.0122929)
(0.949901 0.00129457 -0.0016826)
(0.683977 0.072945 -0.772308)
(0.628671 0.000178711 -0.000128511)
(0.62862 0.000143003 -0.000411554)
(0.652133 0.000525165 -0.00012714)
(0.628573 0.000104265 -0.000747723)
(0.651974 0.000462913 -0.000433243)
(0.650228 0.000951192 -0.00225733)
(0.628528 6.6917e-05 -0.00114873)
(0.651746 0.000368098 -0.000872055)
(0.649937 0.000903421 -0.00710749)
(0.968008 0.00236836 -0.000622295)
(0.62848 2.74246e-05 -0.00161515)
(0.651409 0.000263863 -0.00148386)
(0.649707 0.000708225 -0.0125235)
(0.957997 0.00232832 -0.0020602)
(0.7097 0.0570446 -0.828394)
(0.628414 2.09973e-06 -0.00214375)
(0.650923 0.00010897 -0.00232931)
(0.649403 0.000254089 -0.0184204)
(0.939489 0.00122574 -0.00457684)
(0.703217 0.0459689 -0.772625)
(0.589533 0.126504 -0.795526)
(0.131569 0.0680277 -0.568736)
(0.628725 0.000210322 -0.000128612)
(0.628669 0.000178684 -0.00041206)
(0.652224 0.000564849 -0.000127669)
(0.628615 0.000142891 -0.000749216)
(0.652065 0.000525099 -0.000433889)
(0.650536 0.000940029 -0.00226701)
(0.628561 0.000103949 -0.00115135)
(0.651831 0.000462838 -0.000873037)
(0.650241 0.000947828 -0.00715536)
(0.970846 0.00248337 -0.000627309)
(0.628502 6.60932e-05 -0.00162032)
(0.651481 0.000368483 -0.00147855)
(0.64994 0.000891088 -0.0126476)
(0.962751 0.00236245 -0.00209808)
(0.71424 0.033483 -0.84479)
(0.62843 2.52229e-05 -0.00215353)
(0.65096 0.000266593 -0.00231156)
(0.649655 0.000666889 -0.0187291)
(0.946828 0.00228398 -0.00497158)
(0.715029 0.0462097 -0.821109)
(0.668101 0.0903368 -0.893373)
(0.135367 0.0502111 -0.617767)
(0.628324 4.10217e-07 -0.00274678)
(0.650215 0.00011164 -0.00343042)
(0.64922 0.000214072 -0.0250729)
(0.923156 0.00116233 -0.00926768)
(0.709538 0.0300179 -0.755741)
(0.13967 0.0449243 -0.568382)
(0.39378 0.090402 -0.616604)
(0.125121 0.110345 -0.591398)
(0.0809311 0.0529137 -0.335714)
(0.628782 0.000235836 -0.000128662)
(0.628723 0.000210308 -0.000412398)
(0.652311 0.000579805 -0.000128239)
(0.628663 0.000178619 -0.000750172)
(0.652156 0.00056475 -0.000435569)
(0.650845 0.000896279 -0.00227309)
(0.628602 0.00014267 -0.00115361)
(0.651922 0.000524951 -0.000874327)
(0.650549 0.000938078 -0.00718598)
(0.972557 0.00233927 -0.000624225)
(0.628535 0.000103396 -0.00162386)
(0.651565 0.000462675 -0.00148017)
(0.650244 0.000940428 -0.0127316)
(0.965556 0.00248281 -0.0021132)
(0.715483 0.0193317 -0.848207)
(0.628453 6.48255e-05 -0.00215956)
(0.651027 0.00036901 -0.00230569)
(0.649888 0.000868479 -0.0189044)
(0.95128 0.00235613 -0.00501196)
(0.717669 0.0274232 -0.837944)
(0.67882 0.0541072 -0.908353)
(0.132693 0.0306196 -0.630113)
(0.628341 2.24243e-05 -0.00275585)
(0.650241 0.000270213 -0.00341268)
(0.649466 0.000603102 -0.0254281)
(0.929403 0.00224349 -0.00957678)
(0.714114 0.0378361 -0.79684)
(0.139348 0.0418798 -0.609608)
(0.540728 0.128649 -0.780022)
(0.143677 0.0731775 -0.677823)
(0.0858035 0.0444134 -0.376116)
(0.62817 -1.31559e-06 -0.00340565)
(0.649146 0.00011458 -0.00483547)
(0.648774 0.000161499 -0.0319593)
(0.901037 0.00111721 -0.0160243)
(0.707128 0.0208304 -0.731078)
(0.152867 0.0297613 -0.561279)
(0.0800355 0.0370763 -0.342062)
(0.240985 0.0634967 -0.445867)
(0.10037 0.0763821 -0.547184)
(0.0905052 0.080775 -0.335122)
(0.0209478 0.0345598 -0.189314)
(0.62884 0.000254133 -0.000128675)
(0.62878 0.000235832 -0.000412573)
(0.652393 0.000574853 -0.000128849)
(0.628717 0.000210271 -0.00075083)
(0.652243 0.000579708 -0.000437384)
(0.651132 0.000836282 -0.00227686)
(0.628651 0.000178485 -0.00115511)
(0.652012 0.000564532 -0.000877368)
(0.650859 0.000895155 -0.00720532)
(0.973624 0.00213304 -0.000624266)
(0.628576 0.000142279 -0.00162692)
(0.651654 0.000524644 -0.00148247)
(0.650553 0.000933745 -0.0127858)
(0.967254 0.00234069 -0.00210697)
(0.716167 0.0115241 -0.849377)
(0.628486 0.000102519 -0.00216388)
(0.651108 0.000462308 -0.00230843)
(0.650191 0.00092657 -0.0190268)
(0.954013 0.00248464 -0.00504173)
(0.718817 0.0161801 -0.842205)
(0.68013 0.0307465 -0.909855)
(0.129824 0.0188247 -0.631348)
(0.628363 6.308e-05 -0.00276212)
(0.650303 0.0003695 -0.00340762)
(0.649699 0.00083153 -0.0256468)
(0.93342 0.00235397 -0.00961086)
(0.715607 0.0232942 -0.812726)
(0.13645 0.0256223 -0.622474)
(0.570078 0.0905234 -0.792998)
(0.141985 0.0459697 -0.688506)
(0.0846678 0.0296846 -0.387115)
(0.628187 1.9399e-05 -0.00341255)
(0.649161 0.00027404 -0.00482154)
(0.649015 0.00051621 -0.0323154)
(0.906014 0.00221536 -0.016238)
(0.708583 0.0310218 -0.76482)
(0.150317 0.0348485 -0.595635)
(0.0813433 0.0370161 -0.37616)
(0.419198 0.138118 -0.664316)
(0.145801 0.093436 -0.705705)
(0.107224 0.063679 -0.401774)
(0.0209185 0.0306272 -0.217287)
(0.627923 -2.67826e-06 -0.00410074)
(0.647622 0.000116933 -0.00654167)
(0.647886 0.000101556 -0.0387533)
(0.873698 0.00108917 -0.0250228)
(0.69926 0.0150846 -0.699798)
(0.17078 0.0204191 -0.549348)
(0.0828249 0.0254886 -0.345875)
(0.021901 0.0251715 -0.193612)
(0.170956 0.0507042 -0.365757)
(0.0775341 0.0493581 -0.490709)
(0.103209 0.0545312 -0.290304)
(0.0210894 0.049977 -0.186963)
(0.0124653 0.0195569 -0.0974815)
(0.628897 0.000264513 -0.000128661)
(0.628838 0.000254135 -0.000412633)
(0.652466 0.000553175 -0.000129413)
(0.628774 0.000235817 -0.000751194)
(0.652324 0.000574767 -0.000439319)
(0.651386 0.000766898 -0.00227912)
(0.628705 0.000210193 -0.00115616)
(0.652099 0.000579498 -0.000880659)
(0.651145 0.000835641 -0.00721738)
(0.974288 0.00185683 -0.000624878)
(0.628625 0.000178241 -0.00162901)
(0.651744 0.000564102 -0.00148724)
(0.650862 0.00089263 -0.0128203)
(0.968316 0.00213463 -0.00210915)
(0.716696 0.00712415 -0.849842)
(0.628527 0.000141649 -0.00216764)
(0.651195 0.000524028 -0.00231237)
(0.6505 0.000925546 -0.0191068)
(0.955686 0.00234575 -0.00503906)
(0.719586 0.00974843 -0.843818)
(0.68036 0.0181104 -0.910023)
(0.127873 0.0125452 -0.631625)
(0.628396 0.000101266 -0.00276687)
(0.650378 0.000461481 -0.00341233)
(0.650001 0.000903277 -0.0258055)
(0.93603 0.00249087 -0.0096618)
(0.716636 0.0142258 -0.817626)
(0.133949 0.0159692 -0.624431)
(0.573417 0.0555606 -0.788585)
(0.138 0.0281846 -0.687946)
(0.0827869 0.0186757 -0.388141)
(0.62821 6.09608e-05 -0.00341827)
(0.649214 0.00036947 -0.00481914)
(0.649246 0.000776993 -0.0325609)
(0.909493 0.00235651 -0.0162743)
(0.70948 0.0202629 -0.779199)
(0.14739 0.0219349 -0.607946)
(0.0797876 0.0244341 -0.38731)
(0.469141 0.112777 -0.694921)
(0.15134 0.0699184 -0.716699)
(0.107514 0.0445284 -0.412556)
(0.0189613 0.0213991 -0.224471)
(0.627941 1.6746e-05 -0.00410453)
(0.647625 0.000276704 -0.00653491)
(0.648122 0.000411795 -0.0390635)
(0.877393 0.00219663 -0.0251839)
(0.699639 0.0250441 -0.726495)
(0.167446 0.028883 -0.577183)
(0.0819789 0.0305237 -0.374347)
(0.0210094 0.0256663 -0.217285)
(0.35496 0.135136 -0.604)
(0.140604 0.0920621 -0.72199)
(0.144976 0.0818614 -0.40527)
(0.0238171 0.0429396 -0.231446)
(0.0133899 0.0182326 -0.113947)
(0.627552 -3.29984e-06 -0.00479828)
(0.645561 0.00011764 -0.00849366)
(0.646341 4.2956e-05 -0.0450966)
(0.84203 0.001067 -0.0360999)
(0.687921 0.0109129 -0.660848)
(0.192893 0.0146214 -0.534189)
(0.0894163 0.0176292 -0.347611)
(0.0241817 0.0177909 -0.196746)
(0.012522 0.0146015 -0.100187)
(0.0668085 0.0388169 -0.458255)
(0.130273 0.0422161 -0.320527)
(0.106032 0.0357344 -0.246106)
(0.0206765 0.0298911 -0.157423)
(0.0134026 0.0273556 -0.0951394)
(0.00343097 0.00955052 -0.0450905)
(0.62895 0.000266893 -0.000128629)
(0.628895 0.000264518 -0.000412602)
(0.652531 0.000519083 -0.000129902)
(0.628832 0.000254133 -0.000751352)
(0.652398 0.000553106 -0.000441103)
(0.651601 0.000692299 -0.00228042)
(0.628762 0.00023578 -0.00115678)
(0.65218 0.00057458 -0.000884138)
(0.6514 0.000766544 -0.00722465)
(0.974701 0.00157021 -0.000626173)
(0.628679 0.000210045 -0.00163052)
(0.65183 0.000579085 -0.00149238)
(0.651149 0.000834187 -0.012842)
(0.968977 0.00185842 -0.00211205)
(0.717111 0.00452567 -0.850061)
(0.628575 0.000177836 -0.00217031)
(0.651284 0.000563298 -0.00231939)
(0.650809 0.000887813 -0.0191584)
(0.956738 0.00213966 -0.00504785)
(0.720167 0.00608076 -0.844505)
(0.680631 0.0110487 -0.910022)
(0.1267 0.00874196 -0.631858)
(0.628437 0.00014073 -0.00277109)
(0.650463 0.000522821 -0.00341884)
(0.650309 0.000911569 -0.0259115)
(0.937658 0.00235606 -0.00967177)
(0.717418 0.0087037 -0.819599)
(0.132334 0.0106891 -0.625059)
(0.572743 0.0332123 -0.784853)
(0.134993 0.0187347 -0.687351)
(0.080958 0.0120372 -0.387765)
(0.628243 9.96675e-05 -0.00342292)
(0.649283 0.000459699 -0.004827)
(0.649545 0.000867632 -0.0327483)
(0.911915 0.0025003 -0.0163567)
(0.710389 0.0129314 -0.784575)
(0.145178 0.0140656 -0.610566)
(0.0780621 0.0153664 -0.388877)
(0.477253 0.0771187 -0.687796)
(0.146445 0.0473419 -0.711268)
(0.105184 0.0284522 -0.412371)
(0.0168933 0.0140406 -0.224733)
(0.627963 5.87474e-05 -0.00410894)
(0.647668 0.000368034 -0.00653709)
(0.64835 0.000704139 -0.0393132)
(0.880269 0.00235781 -0.0252438)
(0.700256 0.0176622 -0.739123)
(0.16467 0.0191709 -0.588397)
(0.0801993 0.020306 -0.38495)
(0.0191617 0.0174771 -0.22447)
(0.416121 0.119807 -0.651332)
(0.156233 0.0807111 -0.753676)
(0.152623 0.0681792 -0.42002)
(0.0216369 0.0318412 -0.238825)
(0.0127895 0.0135638 -0.118217)
(0.627569 1.51094e-05 -0.0047988)
(0.645555 0.000276423 -0.00849576)
(0.646569 0.00030164 -0.0453283)
(0.84457 0.00217314 -0.0362663)
(0.68803 0.0195726 -0.680947)
(0.189689 0.0236575 -0.556052)
(0.0875713 0.0249632 -0.370692)
(0.0227763 0.0211271 -0.216535)
(0.012684 0.0153599 -0.114201)
(0.136428 0.0894992 -0.726402)
(0.308627 0.129716 -0.562449)
(0.169303 0.0816296 -0.407496)
(0.0298937 0.0537876 -0.230222)
(0.0165397 0.0251374 -0.120581)
(0.00294029 0.00926018 -0.0534203)
(0.627028 -2.97274e-06 -0.00544878)
(0.642922 0.000115838 -0.0105727)
(0.643915 -5.01791e-06 -0.0506053)
(0.807212 0.00103559 -0.0486278)
(0.674066 0.00759082 -0.614138)
(0.218512 0.0106899 -0.515634)
(0.0995657 0.0124676 -0.347921)
(0.0280413 0.0124321 -0.198922)
(0.0132134 0.0105252 -0.102385)
(0.00372169 0.00724704 -0.0464144)
(0.103525 0.0276219 -0.219704)
(0.0597662 0.0328113 -0.437594)
(0.0857149 0.0323763 -0.269786)
(0.0194007 0.017664 -0.129411)
(0.0144196 0.0152292 -0.077805)
(0.00315032 0.0130582 -0.0438216)
(0.00185834 0.004081 -0.0187633)
(0.628998 0.000261764 -0.000128588)
(0.628948 0.0002669 -0.000412514)
(0.652585 0.000476394 -0.000130303)
(0.628889 0.000264524 -0.000751341)
(0.652462 0.000519033 -0.000442651)
(0.651775 0.000615409 -0.0022811)
(0.62882 0.000254123 -0.00115708)
(0.652254 0.000552958 -0.000887337)
(0.651614 0.000692111 -0.00722885)
(0.974953 0.00129433 -0.000627365)
(0.628736 0.000235704 -0.00163145)
(0.651911 0.000574215 -0.00149774)
(0.651403 0.000765727 -0.0128552)
(0.969389 0.00157164 -0.00211642)
(0.717412 0.00296139 -0.850171)
(0.628629 0.00020979 -0.00217228)
(0.651369 0.00057832 -0.00232688)
(0.651096 0.000831396 -0.0191909)
(0.957395 0.00186315 -0.00505602)
(0.720593 0.00389007 -0.84484)
(0.680969 0.00693695 -0.910017)
(0.12603 0.00616226 -0.63208)
(0.628485 0.000177224 -0.00277422)
(0.650549 0.000561846 -0.00342885)
(0.650618 0.000879535 -0.0259806)
(0.938692 0.00214942 -0.00969393)
(0.71801 0.005488 -0.820468)
(0.131373 0.00747725 -0.625433)
(0.572315 0.0201637 -0.782987)
(0.133148 0.0129882 -0.687261)
(0.0793663 0.00789377 -0.387282)
(0.628283 0.000139514 -0.00342723)
(0.649363 0.000520532 -0.00483729)
(0.649851 0.000889753 -0.0328771)
(0.913471 0.00237068 -0.0163923)
(0.711142 0.00807628 -0.786858)
(0.143801 0.00949772 -0.611534)
(0.0765156 0.00989485 -0.388851)
(0.47588 0.0480447 -0.677084)
(0.14129 0.0322243 -0.707425)
(0.102514 0.0184559 -0.411134)
(0.0150332 0.00928622 -0.22399)
(0.627995 9.78711e-05 -0.00411289)
(0.647729 0.000456158 -0.00654939)
(0.648643 0.000817794 -0.0395157)
(0.882434 0.00250677 -0.0253711)
(0.70105 0.011858 -0.744761)
(0.162698 0.0128179 -0.591606)
(0.0785993 0.0129398 -0.38704)
(0.0174045 0.0113158 -0.225056)
(0.428124 0.0868521 -0.64603)
(0.153012 0.0617001 -0.74795)
(0.150799 0.0483289 -0.417515)
(0.0187232 0.0215352 -0.238398)
(0.0118584 0.00939015 -0.118382)
(0.627591 5.6854e-05 -0.00480141)
(0.645588 0.000363964 -0.00850388)
(0.646792 0.000616281 -0.0455582)
(0.846826 0.00234537 -0.0363742)
(0.688511 0.0151191 -0.691674)
(0.187207 0.016893 -0.565923)
(0.0857443 0.0171713 -0.380341)
(0.0210562 0.014226 -0.223336)
(0.0120115 0.0110469 -0.118426)
(0.157766 0.0842919 -0.775822)
(0.376358 0.122893 -0.621932)
(0.187024 0.0796839 -0.443353)
(0.0293585 0.0482759 -0.241256)
(0.0161537 0.01999 -0.125108)
(0.00214928 0.00721406 -0.0555973)
(0.627045 1.49376e-05 -0.00544654)
(0.64291 0.000271617 -0.0105833)
(0.644129 0.00020052 -0.0507484)
(0.808817 0.00212383 -0.0488445)
(0.674149 0.0146173 -0.628348)
(0.215892 0.0189545 -0.532105)
(0.0975045 0.0201878 -0.366066)
(0.02645 0.0171457 -0.214946)
(0.0128404 0.0126492 -0.114156)
(0.00318188 0.00783944 -0.0535334)
(0.176618 0.0783598 -0.402693)
(0.132193 0.0872778 -0.726391)
(0.246304 0.118536 -0.509622)
(0.0351615 0.0517138 -0.22687)
(0.0222644 0.030856 -0.117443)
(0.00284366 0.0126085 -0.0564629)
(0.00188792 0.00402815 -0.0223668)
(0.626341 -1.73207e-06 -0.00599054)
(0.639726 0.000111228 -0.0125993)
(0.640434 -3.61312e-05 -0.0548961)
(0.770727 0.000981726 -0.0615316)
(0.658137 0.00495939 -0.560668)
(0.246656 0.00774395 -0.493298)
(0.112821 0.00896012 -0.346362)
(0.0336553 0.00874477 -0.200538)
(0.0147011 0.00742804 -0.104142)
(0.00424893 0.00530031 -0.0475233)
(0.0019129 0.00312058 -0.0193456)
(0.0185099 0.0129385 -0.115164)
(0.100641 0.023186 -0.203661)
(0.0507198 0.0256703 -0.410313)
(0.0388786 0.0210378 -0.202159)
(0.0143879 0.00861825 -0.0614054)
(0.00222471 0.00682947 -0.035436)
(0.00189494 0.00552177 -0.0181653)
(0.000471883 0.00157341 -0.00713722)
(0.629041 0.000250112 -0.000128541)
(0.628996 0.000261772 -0.000412394)
(0.65263 0.000428614 -0.000130608)
(0.628942 0.000266912 -0.000751223)
(0.652517 0.000476359 -0.000443913)
(0.651911 0.000538532 -0.0022814)
(0.628876 0.000264531 -0.00115712)
(0.652318 0.000518925 -0.0008901)
(0.651789 0.000615316 -0.00723109)
(0.975098 0.00104751 -0.000628296)
(0.628794 0.000254094 -0.00163195)
(0.651984 0.000552671 -0.00150264)
(0.651618 0.000691669 -0.0128629)
(0.969639 0.00129558 -0.00212017)
(0.717608 0.00198363 -0.850229)
(0.628686 0.000235564 -0.00217355)
(0.65145 0.000573547 -0.00233455)
(0.65135 0.000764152 -0.0192108)
(0.957804 0.00157577 -0.00506536)
(0.720886 0.00256138 -0.845016)
(0.681284 0.00448905 -0.910014)
(0.125632 0.00433641 -0.632235)
(0.628539 0.000209393 -0.0027766)
(0.650633 0.000576966 -0.00343937)
(0.650904 0.000826585 -0.0260245)
(0.939341 0.00187213 -0.0097123)
(0.718435 0.00353748 -0.820894)
(0.130824 0.00528746 -0.625718)
(0.572391 0.0125625 -0.782125)
(0.132096 0.00911023 -0.687359)
(0.0780558 0.00519138 -0.386871)
(0.628331 0.00017638 -0.0034306)
(0.649446 0.000559309 -0.00485123)
(0.650158 0.000866487 -0.0329626)
(0.914475 0.00216325 -0.0164376)
(0.71172 0.0051594 -0.7879)
(0.142989 0.00667904 -0.612051)
(0.0751997 0.00650028 -0.388543)
(0.474393 0.0295638 -0.670359)
(0.137901 0.0223196 -0.705882)
(0.100101 0.0120986 -0.410202)
(0.0134876 0.00626816 -0.223264)
(0.628035 0.000138066 -0.00411688)
(0.647803 0.000516416 -0.00656467)
(0.648946 0.000858381 -0.039661)
(0.883882 0.00238462 -0.025449)
(0.701751 0.00760658 -0.7473)
(0.161495 0.00877934 -0.592902)
(0.0772602 0.00836968 -0.387369)
(0.0158953 0.00741131 -0.224548)
(0.426614 0.0554098 -0.631833)
(0.146634 0.0440636 -0.739658)
(0.146721 0.0325408 -0.413717)
(0.0158962 0.0144911 -0.237066)
(0.0109084 0.00635557 -0.117876)
(0.627622 9.61362e-05 -0.00480418)
(0.64564 0.000449794 -0.00852159)
(0.647075 0.000754145 -0.0457591)
(0.848672 0.00249888 -0.0365601)
(0.689197 0.0107394 -0.697292)
(0.185465 0.0118907 -0.569581)
(0.08425 0.0112792 -0.382916)
(0.0195512 0.00917121 -0.224257)
(0.0111915 0.00748555 -0.118741)
(0.156326 0.0676952 -0.772985)
(0.391723 0.0930762 -0.618726)
(0.188026 0.0635327 -0.444256)
(0.0254232 0.0366861 -0.239924)
(0.0149304 0.0143735 -0.124985)
(0.00139539 0.00526475 -0.055691)
(0.627066 5.56991e-05 -0.00544724)
(0.642934 0.000356007 -0.0105976)
(0.644342 0.000521085 -0.0509393)
(0.810485 0.00230279 -0.0490176)
(0.674545 0.0125251 -0.637103)
(0.213802 0.0147708 -0.540515)
(0.095765 0.0147306 -0.37456)
(0.0248773 0.0116925 -0.221116)
(0.0121247 0.00887064 -0.11814)
(0.00250615 0.00588112 -0.0556691)
(0.199908 0.0831233 -0.454832)
(0.157661 0.0864827 -0.789176)
(0.319635 0.123759 -0.583575)
(0.0385646 0.0557428 -0.252961)
(0.0234489 0.0299023 -0.12444)
(0.00177108 0.0105323 -0.0588216)
(0.00166367 0.00321771 -0.0233027)
(0.626357 1.63133e-05 -0.00598645)
(0.639711 0.000261557 -0.0126162)
(0.64063 0.000121041 -0.0549616)
(0.77165 0.00202836 -0.0618145)
(0.658236 0.0103444 -0.570018)
(0.244759 0.0147373 -0.505065)
(0.110967 0.0160183 -0.360075)
(0.0321322 0.0137335 -0.213101)
(0.0140331 0.0102165 -0.113707)
(0.00369821 0.00647162 -0.0535255)
(0.00184758 0.0034196 -0.0224353)
(0.0377545 0.0479235 -0.223293)
(0.179362 0.0751735 -0.396802)
(0.124291 0.0825003 -0.72034)
(0.160863 0.0954699 -0.43015)
(0.0263868 0.0286016 -0.111333)
(0.00223669 0.0151925 -0.0546081)
(0.00219249 0.0054478 -0.023577)
(0.000276257 0.00158023 -0.0085425)
(0.63607 0.000104177 -0.0143553)
(0.635846 -4.92894e-05 -0.0576361)
(0.734274 0.000898946 -0.0734445)
(0.640488 0.00300424 -0.502392)
(0.275986 0.00545711 -0.466929)
(0.12869 0.00640177 -0.342252)
(0.0411162 0.0062182 -0.201411)
(0.0171088 0.00521875 -0.105663)
(0.00507674 0.00377837 -0.0484387)
(0.00206819 0.00229816 -0.0198435)
(0.000530092 0.00120816 -0.00736013)
(0.0140701 0.00608297 -0.0525469)
(0.0180088 0.0106063 -0.10777)
(0.0954273 0.0183268 -0.184773)
(0.0386891 0.0164246 -0.361542)
(0.00723076 0.0106279 -0.127677)
(0.000948327 0.00368276 -0.0275832)
(0.00177146 0.0028126 -0.014543)
(0.00039439 0.00211663 -0.00690557)
(9.18188e-05 0.000578087 -0.00259397)
(0.629076 0.000233271 -0.000128492)
(0.629038 0.000250119 -0.000412253)
(0.652664 0.000378678 -0.00013084)
(0.62899 0.000261786 -0.000751037)
(0.652561 0.000428592 -0.000444873)
(0.652012 0.000463872 -0.00228148)
(0.628929 0.000266929 -0.001157)
(0.652373 0.000476285 -0.00089234)
(0.651924 0.000538495 -0.00723211)
(0.975174 0.000835701 -0.000628885)
(0.62885 0.000264533 -0.00163209)
(0.652049 0.000518716 -0.00150686)
(0.651792 0.000615092 -0.0128671)
(0.969785 0.00104856 -0.00212298)
(0.717719 0.00135255 -0.850256)
(0.628743 0.000254034 -0.00217429)
(0.651523 0.000552148 -0.00234152)
(0.651564 0.000690814 -0.0192225)
(0.958053 0.00129911 -0.00507285)
(0.721069 0.00172558 -0.845113)
(0.681527 0.0029751 -0.910015)
(0.125371 0.00302287 -0.632319)
(0.628595 0.000235335 -0.0027782)
(0.650713 0.00057238 -0.0034499)
(0.651157 0.000761435 -0.0260514)
(0.939746 0.00158355 -0.00973006)
(0.718719 0.00234367 -0.821117)
(0.130496 0.00373192 -0.625907)
(0.572683 0.00806796 -0.781746)
(0.131477 0.00638133 -0.68746)
(0.0770093 0.00339519 -0.386511)
(0.628384 0.000208826 -0.00343327)
(0.649529 0.000574648 -0.00486558)
(0.650443 0.000818983 -0.0330173)
(0.91511 0.00188502 -0.0164738)
(0.712133 0.00335423 -0.788412)
(0.142525 0.00474016 -0.612399)
(0.0741219 0.00428577 -0.388222)
(0.473941 0.018486 -0.666704)
(0.135951 0.015559 -0.705337)
(0.0980977 0.00793677 -0.409552)
(0.0122725 0.00428099 -0.22271)
(0.628082 0.000175317 -0.00412024)
(0.647882 0.000555042 -0.00658348)
(0.64925 0.000847459 -0.0397597)
(0.884838 0.00217746 -0.0255303)
(0.7023 0.00494031 -0.748508)
(0.160786 0.00621849 -0.593569)
(0.076145 0.00552448 -0.387244)
(0.0146673 0.00498773 -0.223954)
(0.424299 0.0344938 -0.621702)
(0.141929 0.0310129 -0.734985)
(0.142643 0.0215453 -0.411265)
(0.0134731 0.00983655 -0.235982)
(0.010028 0.00419127 -0.117329)
(0.627661 0.000136524 -0.00480746)
(0.645707 0.000509515 -0.00854273)
(0.64737 0.00081671 -0.0459117)
(0.849971 0.0023884 -0.036697)
(0.689833 0.00712828 -0.699999)
(0.184402 0.00831309 -0.57118)
(0.0830543 0.00739041 -0.383595)
(0.0183181 0.00596377 -0.223998)
(0.0104129 0.00498105 -0.118361)
(0.149837 0.0493586 -0.763104)
(0.390524 0.0607005 -0.602895)
(0.183729 0.0453031 -0.437941)
(0.020696 0.0260066 -0.236966)
(0.0135266 0.00997465 -0.124175)
(0.000739156 0.00375438 -0.0554283)
(0.627096 9.47664e-05 -0.0054486)
(0.642976 0.000439514 -0.010621)
(0.64461 0.000680039 -0.0511223)
(0.811974 0.00246175 -0.0492704)
(0.675126 0.009469 -0.642388)
(0.212303 0.0110125 -0.544417)
(0.09437 0.0101358 -0.377524)
(0.0235667 0.00763192 -0.222374)
(0.0113982 0.00590097 -0.118623)
(0.00189279 0.00418684 -0.0558229)
(0.203104 0.0700419 -0.460452)
(0.157958 0.0717777 -0.789117)
(0.339927 0.0999955 -0.584463)
(0.035324 0.0482495 -0.255331)
(0.0220965 0.0242281 -0.124254)
(0.000660594 0.00800293 -0.0588139)
(0.00138044 0.00242519 -0.0233373)
(0.626376 5.5538e-05 -0.00598551)
(0.639727 0.000343376 -0.0126359)
(0.640826 0.000428848 -0.0551038)
(0.772806 0.00221455 -0.0620556)
(0.658564 0.0099468 -0.57682)
(0.243112 0.012644 -0.511988)
(0.109403 0.0126593 -0.367313)
(0.0307277 0.00977079 -0.21852)
(0.0133103 0.00711813 -0.117314)
(0.0031285 0.00469729 -0.0555304)
(0.0016406 0.00262671 -0.0233534)
(0.043892 0.0572743 -0.260601)
(0.206706 0.0845688 -0.459985)
(0.155086 0.088145 -0.800747)
(0.233873 0.1155 -0.522083)
(0.0302263 0.0338527 -0.126975)
(0.000930887 0.0155158 -0.0583262)
(0.00192829 0.00466967 -0.0245911)
(1.67102e-05 0.0012918 -0.00891411)
(0.636056 0.000246688 -0.0143758)
(0.636016 6.93122e-05 -0.0576465)
(0.734748 0.00187587 -0.0737792)
(0.640591 0.00690803 -0.508087)
(0.274764 0.0110831 -0.474868)
(0.127205 0.0123627 -0.352097)
(0.0398152 0.0108215 -0.210884)
(0.0163541 0.00811421 -0.113181)
(0.00455438 0.00522283 -0.0533313)
(0.00193577 0.00282736 -0.0224569)
(0.000359485 0.00134314 -0.00856592)
(0.0280603 0.025486 -0.105772)
(0.0393618 0.0449683 -0.220578)
(0.180194 0.0694038 -0.387356)
(0.108794 0.0707909 -0.694534)
(0.0733575 0.0602801 -0.319827)
(0.000878262 0.0135549 -0.0509984)
(0.00257527 0.00649451 -0.0225813)
(0.000143474 0.00213108 -0.00900794)
(-0.000104152 0.000590924 -0.0031138)
(0.63213 9.55346e-05 -0.0156269)
(0.63027 -4.79989e-05 -0.0586034)
(0.699547 0.000790068 -0.0829797)
(0.621614 0.00167338 -0.442014)
(0.304866 0.00372876 -0.436488)
(0.146697 0.00445799 -0.334936)
(0.0504501 0.00441709 -0.20121)
(0.0205094 0.00368141 -0.106862)
(0.0062663 0.00266491 -0.0492545)
(0.00235505 0.00164611 -0.0202628)
(0.000622809 0.000893439 -0.00755165)
(0.000129734 0.000444814 -0.00267577)
(0.000169753 0.00252613 -0.0235487)
(0.0138452 0.00494468 -0.0479276)
(0.0173758 0.00808764 -0.0993433)
(0.0839478 0.0124133 -0.158287)
(0.0264283 0.00777494 -0.283299)
(-0.0026663 0.00401544 -0.0695057)
(0.001416 0.00149739 -0.0111471)
(0.000150021 0.00106111 -0.0055207)
(2.34228e-05 0.000776169 -0.00250826)
(-0.00033714 0.00021116 -0.000930522)
(0.629106 0.000212768 -0.000128451)
(0.629074 0.000233279 -0.000412105)
(0.652689 0.000329007 -0.000131003)
(0.629032 0.000250133 -0.000750809)
(0.652596 0.000378666 -0.000445597)
(0.652085 0.000393339 -0.00228142)
(0.628977 0.000261808 -0.00115676)
(0.652417 0.000428547 -0.00089404)
(0.652026 0.000463865 -0.00723239)
(0.975202 0.000659676 -0.000629178)
(0.628903 0.00026695 -0.00163199)
(0.652103 0.000476145 -0.00151026)
(0.651928 0.000538398 -0.012869)
(0.96986 0.000836578 -0.00212468)
(0.717766 0.000930117 -0.850261)
(0.6288 0.000264525 -0.00217457)
(0.651587 0.000518336 -0.00234748)
(0.651738 0.000614658 -0.0192287)
(0.958197 0.00105151 -0.00507824)
(0.721166 0.00118339 -0.845164)
(0.681688 0.00200677 -0.910013)
(0.125177 0.0020869 -0.632346)
(0.628652 0.000253923 -0.00277919)
(0.650785 0.000551238 -0.00345939)
(0.651371 0.000689346 -0.0260671)
(0.939993 0.00130573 -0.00974371)
(0.718892 0.00158755 -0.821238)
(0.13028 0.00260857 -0.62601)
(0.572996 0.0053098 -0.781605)
(0.131075 0.00443039 -0.687516)
(0.0761946 0.0021936 -0.386193)
(0.62844 0.000234991 -0.00343517)
(0.649607 0.000570416 -0.00487964)
(0.650695 0.000757159 -0.0330509)
(0.915508 0.00159485 -0.0165056)
(0.712409 0.00223675 -0.788678)
(0.142246 0.00335697 -0.61262)
(0.0732608 0.002811 -0.387912)
(0.474073 0.0118896 -0.664798)
(0.134816 0.0108316 -0.705141)
(0.096499 0.00517456 -0.409055)
(0.0113511 0.00294066 -0.222285)
(0.628134 0.000208077 -0.00412305)
(0.647962 0.00057083 -0.00660252)
(0.649531 0.00080786 -0.0398236)
(0.88545 0.00189921 -0.0255947)
(0.702696 0.00324652 -0.749107)
(0.16038 0.00443212 -0.593984)
(0.0752365 0.00365868 -0.387018)
(0.0137108 0.0034082 -0.223474)
(0.423319 0.0217058 -0.615863)
(0.139155 0.0216808 -0.732644)
(0.139187 0.0141452 -0.4098)
(0.0115431 0.00671802 -0.23522)
(0.00925336 0.00263039 -0.116862)
(0.627707 0.000174092 -0.00481056)
(0.645781 0.000548233 -0.0085671)
(0.647667 0.000821644 -0.0460189)
(0.850857 0.00218484 -0.0368281)
(0.690344 0.00473029 -0.70135)
(0.183773 0.00594743 -0.572006)
(0.0820744 0.00492313 -0.383662)
(0.0173378 0.00400782 -0.223544)
(0.00971384 0.0032518 -0.117894)
(0.144633 0.0351299 -0.756643)
(0.387667 0.0382119 -0.590606)
(0.178497 0.0307419 -0.432678)
(0.0163356 0.0179949 -0.234702)
(0.0121673 0.00667259 -0.123412)
(0.000186471 0.00260899 -0.0551353)
(0.627133 0.000135071 -0.00545094)
(0.643035 0.000498847 -0.0106481)
(0.644893 0.000765546 -0.0512717)
(0.81309 0.00236905 -0.0494782)
(0.67569 0.00655893 -0.645142)
(0.211373 0.00791332 -0.546272)
(0.0932744 0.00679431 -0.378532)
(0.0225317 0.00496783 -0.222371)
(0.0107604 0.00385226 -0.118378)
(0.00137548 0.00292673 -0.0556144)
(0.199281 0.051423 -0.453671)
(0.151609 0.053207 -0.778663)
(0.339817 0.0678596 -0.567458)
(0.0295272 0.0368013 -0.251285)
(0.0198877 0.0178852 -0.122752)
(-0.000349776 0.00586636 -0.058422)
(0.00110013 0.00180313 -0.0232223)
(0.626405 9.39978e-05 -0.00598552)
(0.639761 0.000424601 -0.0126641)
(0.641073 0.000601551 -0.0552568)
(0.773936 0.00238085 -0.0623728)
(0.659045 0.00805579 -0.581492)
(0.241876 0.0100248 -0.51589)
(0.108115 0.00923055 -0.370504)
(0.0295667 0.00659757 -0.220073)
(0.0126591 0.00470109 -0.117975)
(0.00263669 0.00325908 -0.055755)
(0.00140578 0.00192978 -0.0234125)
(0.0417806 0.0530258 -0.26742)
(0.211796 0.0739894 -0.46931)
(0.158373 0.0769122 -0.805398)
(0.260447 0.10387 -0.533745)
(0.0297313 0.0314546 -0.129703)
(-0.000785607 0.0132755 -0.0584393)
(0.00152353 0.00366454 -0.0245851)
(-0.000241799 0.00100181 -0.00893493)
(0.636066 0.00032617 -0.0143991)
(0.636191 0.000349126 -0.0577413)
(0.735496 0.00207182 -0.0740745)
(0.640857 0.00753491 -0.513078)
(0.273561 0.0105044 -0.480352)
(0.125866 0.0107309 -0.358049)
(0.0385969 0.00826523 -0.215495)
(0.0156625 0.00578001 -0.116345)
(0.00407759 0.00372087 -0.055141)
(0.00174626 0.00209419 -0.0233196)
(0.000154205 0.00105525 -0.0089285)
(0.0336227 0.033937 -0.127338)
(0.0475107 0.0574767 -0.264861)
(0.213202 0.0847422 -0.464412)
(0.145389 0.085607 -0.802256)
(0.130793 0.0888715 -0.425188)
(-0.000347543 0.017066 -0.0590121)
(0.00239182 0.00680639 -0.0241612)
(-0.0002496 0.00186959 -0.0094156)
(-0.000336965 0.000492752 -0.00325746)
(0.632118 0.000228461 -0.0156486)
(0.63041 4.3848e-05 -0.0585827)
(0.699755 0.00167074 -0.0833337)
(0.621704 0.00435513 -0.445214)
(0.30418 0.00807558 -0.441565)
(0.145596 0.00922987 -0.341603)
(0.0494306 0.00833884 -0.208003)
(0.0198122 0.00633447 -0.112548)
(0.00580525 0.00413322 -0.0531086)
(0.00218759 0.00228138 -0.0223993)
(0.00047836 0.00111144 -0.00857223)
(-2.11323e-05 0.000502299 -0.00312185)
(-0.000163886 0.0116568 -0.0481083)
(0.0288776 0.0234191 -0.102164)
(0.0413439 0.0405084 -0.216544)
(0.173939 0.0574003 -0.369593)
(0.0854831 0.0513387 -0.624813)
(0.0179344 0.0269417 -0.201482)
(0.00245445 0.00564858 -0.0206647)
(-0.000265423 0.00253125 -0.00863339)
(-0.000283935 0.000796642 -0.00328467)
(-0.00079179 0.0002256 -0.00112522)
(0.628131 8.63147e-05 -0.0162561)
(0.624002 -3.79813e-05 -0.057736)
(0.667969 0.000665899 -0.0890464)
(0.602219 0.000850356 -0.382481)
(0.331626 0.00248803 -0.40231)
(0.166324 0.00300366 -0.323871)
(0.0616235 0.00308401 -0.199578)
(0.0249332 0.00259263 -0.107572)
(0.00786932 0.0018782 -0.0499328)
(0.00280218 0.00116296 -0.0206418)
(0.000759336 0.000642205 -0.00771387)
(0.000178713 0.000329658 -0.00274627)
(-0.00025909 0.000163057 -0.000959214)
(0.00114713 0.00101722 -0.00935374)