/*--------------------------------*- C++ -*----------------------------------*\
  =========                 |
  \\      /  F ield         | OpenFOAM: The Open Source CFD Toolbox
   \\    /   O peration     | Website:  https://openfoam.org
    \\  /    A nd           | Version:  7
     \\/     M anipulation  |
\*---------------------------------------------------------------------------*/
FoamFile
{
    version     2.0;
    format      ascii;
    class       surfaceScalarField;
    location    "100";
    object      phi;
}
// * * * * * * * * * * * * * * * * * * * * * * * * * * * * * * * * * * * * * //

dimensions      [0 3 -1 0 0 0 0];

internalField   nonuniform List<scalar> 
126932
(
6.89677e-11
2.08955e-12
2.25026e-11
1.21801e-10
9.80703e-12
9.35741e-11
5.91144e-13
8.50871e-13
6.47449e-13
1.12774e-10
5.07247e-12
2.60843e-11
1.4667e-10
2.39947e-11
1.88586e-10
2.61516e-12
4.39305e-12
3.38984e-12
2.54681e-10
2.68905e-11
1.27521e-10
8.574e-14
7.60337e-13
4.74797e-15
1.51556e-12
2.6579e-12
1.54632e-12
1.47544e-10
8.50068e-12
2.54637e-11
1.4769e-10
4.11963e-11
2.71735e-10
5.38542e-12
1.19771e-11
9.24721e-12
3.73132e-10
7.2732e-11
3.05581e-10
2.32457e-13
3.94331e-12
3.02954e-13
7.82963e-12
1.49142e-11
9.05192e-12
3.53976e-10
4.68301e-11
1.33768e-10
-3.04738e-14
8.65597e-13
-7.48642e-14
-2.26693e-14
2.32029e-12
3.64955e-13
2.49788e-12
5.11075e-12
2.43823e-12
1.85391e-10
1.23465e-11
2.31753e-11
1.36761e-10
5.22905e-11
3.05183e-10
6.208e-12
2.29631e-11
1.74104e-11
4.2868e-10
1.3368e-10
4.89973e-10
-2.00749e-13
1.08221e-11
1.58804e-12
1.88581e-11
4.33914e-11
2.75591e-11
5.70189e-10
1.32237e-10
3.5159e-10
-4.88423e-13
4.44626e-12
-4.51465e-14
-4.15897e-13
1.31291e-11
2.48116e-12
1.39983e-11
2.95107e-11
1.48707e-11
4.50414e-10
6.92381e-11
1.25842e-10
-8.25919e-14
1.08812e-12
-1.40017e-13
-4.56241e-13
2.60503e-12
9.65032e-14
-2.11028e-13
4.53849e-12
1.14814e-12
3.54832e-12
8.2257e-12
3.01056e-12
2.27288e-10
1.63773e-11
1.98835e-11
1.23799e-10
5.06421e-11
2.76272e-10
3.48741e-12
3.19887e-11
2.30221e-11
4.29021e-10
1.76339e-10
5.78271e-10
-2.30831e-12
2.09139e-11
4.15654e-12
2.665e-11
8.68358e-11
5.64625e-11
7.15411e-10
2.52734e-10
6.13563e-10
-2.46012e-12
1.20227e-11
7.70888e-13
-2.6676e-12
3.86142e-11
8.61672e-12
3.75357e-11
8.85977e-11
4.76603e-11
7.51041e-10
2.00012e-10
3.4699e-10
-8.4548e-13
5.50871e-12
-2.99703e-13
-3.06437e-12
1.46199e-11
1.07193e-12
-1.5372e-12
2.63944e-11
6.92343e-12
2.06407e-11
4.81261e-11
1.88899e-11
5.5213e-10
9.26941e-11
1.09651e-10
-2.15287e-13
1.54679e-12
-2.43441e-13
-6.66553e-13
3.12664e-12
4.79896e-15
-1.04537e-12
5.00199e-12
6.78174e-13
-2.74647e-13
7.50893e-12
2.13941e-12
4.35985e-12
1.18113e-11
3.2165e-12
2.71299e-10
2.02842e-11
1.59776e-11
1.13926e-10
3.92636e-11
2.08058e-10
-1.20657e-12
3.31434e-11
2.21924e-11
4.05498e-10
1.74227e-10
5.33034e-10
-6.16718e-12
2.93073e-11
6.54012e-12
2.31685e-11
1.23883e-10
7.89594e-11
7.6164e-10
3.42587e-10
7.65144e-10
-6.8935e-12
2.27264e-11
2.62053e-12
-9.54751e-12
7.81825e-11
1.96895e-11
6.11068e-11
1.82438e-10
1.03187e-10
9.88015e-10
3.91808e-10
6.40633e-10
-3.67536e-12
1.45491e-11
3.03316e-13
-1.08518e-11
4.24034e-11
4.7688e-12
-6.22955e-12
7.99903e-11
2.19161e-11
5.87916e-11
1.46862e-10
6.26588e-11
9.28188e-10
2.71142e-10
3.09845e-10
-1.60976e-12
7.59185e-12
-6.88771e-13
-4.41843e-12
1.74411e-11
6.30769e-13
-6.77695e-12
2.88946e-11
4.30291e-12
-2.02019e-12
4.42242e-11
1.25706e-11
2.58525e-11
6.95589e-11
2.05321e-11
6.57093e-10
1.1537e-10
8.88144e-11
-5.45347e-13
2.57322e-12
-4.81113e-13
-1.03346e-12
4.04662e-12
-1.30057e-13
-1.43732e-12
5.84389e-12
6.00061e-13
-1.58363e-12
8.17475e-12
1.59574e-12
-2.22326e-13
1.11366e-11
3.03625e-12
4.72742e-12
1.55364e-11
3.23656e-12
3.13603e-10
2.37584e-11
1.18757e-11
1.08596e-10
2.58854e-11
1.35661e-10
-5.82136e-12
2.70029e-11
1.68753e-11
3.81263e-10
1.36604e-10
4.03867e-10
-1.02791e-11
3.03907e-11
6.86435e-12
1.09915e-11
1.29918e-10
7.86777e-11
7.46658e-10
3.44115e-10
7.25448e-10
-1.28729e-11
3.10053e-11
4.28101e-12
-2.1609e-11
1.12547e-10
2.99369e-11
6.60986e-11
2.65412e-10
1.51143e-10
1.09816e-09
5.41804e-10
8.37134e-10
-9.37543e-12
2.64479e-11
1.97829e-12
-2.61633e-11
8.40097e-11
1.21044e-11
-1.81297e-11
1.6646e-10
4.75673e-11
1.04633e-10
3.07841e-10
1.41312e-10
1.24417e-09
5.39227e-10
5.92024e-10
-5.69472e-12
1.89921e-11
-3.58155e-13
-1.52173e-11
4.98136e-11
3.69165e-12
-2.27253e-11
8.6496e-11
1.4211e-11
-8.0612e-12
1.36132e-10
3.86868e-11
7.60726e-11
2.14055e-10
6.95255e-11
1.10302e-09
3.39793e-10
2.5424e-10
-3.24724e-12
1.18563e-11
-1.56259e-12
-6.61483e-12
2.23408e-11
-7.27349e-15
-9.35326e-12
3.36173e-11
3.82379e-12
-1.03109e-11
4.78543e-11
9.39958e-12
-1.8141e-12
6.59792e-11
1.77416e-11
2.8198e-11
9.17762e-11
2.06546e-11
7.57096e-10
1.3547e-10
6.62851e-11
-1.97571e-12
5.42744e-12
-8.78517e-13
-1.74851e-12
5.64437e-12
-3.30386e-13
-2.00352e-12
7.24118e-12
4.76065e-13
-2.15367e-12
9.37743e-12
1.55087e-12
-1.98048e-12
1.21088e-11
2.60367e-12
-2.51338e-13
1.51367e-11
3.68699e-12
4.6813e-12
1.90486e-11
3.26471e-12
3.4929e-10
2.65381e-11
7.85632e-12
1.54933e-11
8.05082e-11
1.06153e-10
-9.53715e-12
1.85526e-11
1.10484e-11
3.63423e-10
9.09181e-11
2.65329e-10
-1.33063e-11
2.4611e-11
5.41903e-12
-2.71094e-12
1.06372e-10
6.08093e-11
7.15824e-10
2.72577e-10
5.56581e-10
-1.83701e-11
3.13951e-11
4.49241e-12
-3.47625e-11
1.18447e-10
3.14885e-11
5.19611e-11
2.8139e-10
1.55539e-10
1.1103e-09
5.51565e-10
8.17603e-10
-1.62423e-11
3.44264e-11
3.44562e-12
-4.60647e-11
1.17869e-10
1.88601e-11
-3.83755e-11
2.4434e-10
7.12545e-11
1.27946e-10
4.54392e-10
2.1524e-10
1.4149e-09
7.55973e-10
8.00779e-10
-1.23519e-11
3.19036e-11
1.20131e-12
-3.48877e-11
9.55831e-11
1.0075e-11
-5.20089e-11
1.76434e-10
3.14139e-11
-2.29402e-11
2.88137e-10
8.21506e-11
1.42431e-10
4.53168e-10
1.61012e-10
1.48301e-09
6.81784e-10
4.9558e-10
-8.95863e-12
2.64414e-11
-1.73798e-12
-2.11523e-11
6.17516e-11
2.24122e-12
-3.11066e-11
9.93532e-11
1.25875e-11
-3.44243e-11
1.45665e-10
2.87907e-11
-7.84106e-12
2.04646e-10
5.41227e-11
8.3987e-11
2.83525e-10
7.0004e-11
1.26566e-09
4.00429e-10
1.91041e-10
-8.47483e-12
2.1307e-11
-2.95164e-12
-1.05145e-11
3.0494e-11
-9.49837e-13
-1.28508e-11
4.13332e-11
3.12387e-12
-1.41214e-11
5.46744e-11
8.9712e-12
-1.29821e-11
7.131e-11
1.50699e-11
-2.1014e-12
8.98763e-11
2.14909e-11
2.77436e-11
1.12645e-10
2.04172e-11
8.40925e-10
1.51501e-10
4.39486e-11
-9.4945e-12
-1.79276e-12
1.67147e-11
-4.2345e-12
9.66309e-12
-6.62756e-13
-3.01264e-12
9.57265e-12
3.50712e-13
-2.87714e-12
1.13031e-11
1.42739e-12
-2.72443e-12
1.38056e-11
2.57831e-12
-2.33594e-12
1.65915e-11
3.48443e-12
-5.35838e-13
1.91381e-11
4.13294e-12
4.3822e-12
2.2047e-11
3.37329e-12
3.73277e-10
2.84223e-11
3.98688e-12
1.13573e-11
6.60145e-12
-1.20027e-11
5.47655e-11
1.58714e-10
3.51878e-10
4.62169e-11
2.35812e-10
9.49344e-11
-1.51049e-11
1.67102e-11
3.64089e-12
-1.35997e-11
7.30369e-11
3.98184e-11
6.90456e-10
1.82724e-10
3.67484e-10
-2.23112e-11
2.50213e-11
3.53064e-12
-4.47946e-11
9.67316e-11
2.50911e-11
3.11947e-11
2.31535e-10
1.22618e-10
1.08481e-09
4.40713e-10
6.37397e-10
-2.18787e-11
3.34563e-11
3.57487e-12
-6.4307e-11
1.21363e-10
1.98185e-11
-6.09732e-11
2.60233e-10
7.52429e-11
1.20477e-10
4.86202e-10
2.28371e-10
1.45897e-09
7.77459e-10
8.02677e-10
-1.90581e-11
3.84973e-11
2.63512e-12
-5.79151e-11
1.28692e-10
1.56491e-11
-8.85767e-11
2.52986e-10
4.67805e-11
-4.84337e-11
4.28938e-10
1.22201e-10
1.86099e-10
6.75024e-10
2.52522e-10
1.69897e-09
9.64336e-10
6.86045e-10
-1.56328e-11
3.87292e-11
-1.51497e-13
-4.37469e-11
1.11666e-10
7.71244e-12
-6.88644e-11
1.96995e-10
2.72714e-11
-7.75879e-11
3.02751e-10
5.9963e-11
-2.33696e-11
4.3707e-10
1.13777e-10
1.60543e-10
6.03091e-10
1.63149e-10
1.69561e-09
8.07397e-10
3.76531e-10
-1.5131e-11
3.68824e-11
-3.78476e-12
-2.94497e-11
7.87198e-11
2.28876e-13
-4.07242e-11
1.18961e-10
1.05069e-11
-4.70266e-11
1.64444e-10
2.67131e-11
-4.34773e-11
2.18816e-10
4.51149e-11
-9.17479e-12
2.79523e-10
6.51974e-11
8.20942e-11
3.4844e-10
6.76413e-11
1.3999e-09
4.48575e-10
1.27123e-10
-1.86827e-11
-5.18879e-12
3.5684e-11
-2.04709e-11
4.6143e-11
-2.36425e-12
-1.84614e-11
5.34651e-11
2.36701e-12
-1.86459e-11
6.53928e-11
8.17395e-12
-1.79873e-11
8.08931e-11
1.46506e-11
-1.53551e-11
9.79059e-11
2.00588e-11
-4.02499e-12
1.13644e-10
2.39801e-11
2.55358e-11
1.30373e-10
2.03902e-11
8.96796e-10
1.62334e-10
2.23408e-11
-1.6373e-11
-1.07143e-12
2.53148e-11
-3.31816e-11
-2.30487e-12
9.03537e-12
4.31658e-11
-6.33469e-12
1.50584e-11
1.86193e-13
-4.12472e-12
1.44824e-11
1.29605e-12
-3.64693e-12
1.64829e-11
2.39686e-12
-3.23836e-12
1.89524e-11
3.45552e-12
-2.83201e-12
2.12685e-11
4.18575e-12
-1.07873e-12
2.27749e-11
4.48329e-12
3.97894e-12
2.42951e-11
3.52117e-12
3.81562e-10
2.92682e-11
1.88282e-13
1.01582e-11
2.22006e-12
-1.6126e-11
4.46571e-11
2.36375e-11
-2.05275e-11
3.29916e-11
1.83162e-11
-1.70937e-11
1.10496e-10
2.20217e-10
6.73879e-10
1.62678e-10
4.58174e-10
3.18314e-10
6.63815e-11
3.32832e-10
7.88661e-11
-2.47965e-11
1.68491e-11
2.34625e-12
-5.08944e-11
6.60392e-11
1.67382e-11
1.33251e-11
1.59198e-10
8.12138e-11
1.05727e-09
2.97156e-10
4.24204e-10
-2.54953e-11
2.58937e-11
2.74396e-12
-7.74361e-11
9.76945e-11
1.56964e-11
-7.88357e-11
2.14042e-10
6.04468e-11
9.79395e-11
4.01994e-10
1.83874e-10
1.44483e-09
6.25579e-10
6.36008e-10
-2.38188e-11
3.53965e-11
2.82038e-12
-7.68019e-11
1.27801e-10
1.60231e-11
-1.21666e-10
2.64325e-10
4.88145e-11
-7.78448e-11
4.61212e-10
1.29643e-10
1.90076e-10
7.2692e-10
2.74932e-10
1.76666e-09
9.98802e-10
7.01519e-10
-2.07876e-11
4.20791e-11
1.57295e-12
-6.62051e-11
1.41297e-10
1.24881e-11
-1.11741e-10
2.72313e-10
3.91979e-11
-1.29963e-10
4.41457e-10
8.6636e-11
-5.07194e-11
6.56101e-10
1.68473e-10
2.15442e-10
9.02591e-10
2.59367e-10
1.93935e-09
1.14799e-09
5.28699e-10
-1.91882e-11
4.46827e-11
-1.89632e-12
-5.21393e-11
1.29386e-10
4.81825e-12
-8.31802e-11
2.24392e-10
2.27707e-11
-1.03356e-10
3.33032e-10
5.33183e-11
-9.75598e-11
4.59475e-10
9.16394e-11
-2.70685e-11
5.98934e-10
1.35826e-10
1.55784e-10
7.42251e-10
1.54604e-10
1.8654e-09
9.06658e-10
2.52019e-10
-2.16235e-11
-6.00219e-12
4.58254e-11
-4.23112e-11
9.91693e-11
-2.39388e-12
-5.26102e-11
1.45155e-10
8.18322e-12
-5.95287e-11
1.91961e-10
2.38724e-11
-6.01457e-11
2.45101e-10
4.25863e-11
-5.14668e-11
3.01238e-10
5.95109e-11
-1.58866e-11
3.53364e-10
7.21342e-11
7.38095e-11
4.03192e-10
6.47495e-11
1.48786e-09
4.80962e-10
6.47744e-11
-3.87478e-11
-3.76697e-12
6.7096e-11
-2.23084e-11
-3.0788e-12
2.78896e-11
-3.17104e-11
7.50569e-11
1.41961e-12
-2.54718e-11
8.18228e-11
7.28399e-12
-2.37032e-11
9.56529e-11
1.34702e-11
-2.14324e-11
1.11167e-10
1.95828e-11
-1.85975e-11
1.25468e-10
2.39992e-11
-7.63868e-12
1.35097e-10
2.58157e-11
2.26515e-11
1.43578e-10
2.04726e-11
9.15275e-10
1.67179e-10
1.05711e-12
-2.2647e-11
1.11197e-13
3.65227e-11
-4.88511e-11
-1.32545e-12
1.58379e-11
5.73486e-11
-4.42672e-11
-3.37141e-12
5.83466e-12
5.08393e-11
-6.50876e-13
-1.88763e-12
4.57043e-11
-8.21083e-12
2.17357e-11
1.14367e-12
-5.27687e-12
2.08984e-11
2.15735e-12
-4.40218e-12
2.25709e-11
3.18042e-12
-3.88761e-12
2.44745e-11
4.13685e-12
-3.53002e-12
2.57084e-11
4.78199e-12
-1.74451e-12
2.57333e-11
4.78924e-12
3.55792e-12
2.56071e-11
3.62382e-12
3.72844e-10
2.89876e-11
-3.81276e-12
1.01917e-11
1.41717e-12
-2.62471e-11
4.0279e-11
1.00509e-11
-5.43472e-11
3.01109e-11
6.1777e-12
-1.94232e-11
9.74154e-11
4.85174e-11
1.52527e-12
1.30895e-10
6.73512e-11
-3.77802e-11
4.74124e-11
2.455e-11
-2.26748e-11
1.80265e-10
2.55171e-10
1.0375e-09
3.28075e-10
6.37292e-10
6.16566e-10
2.34734e-10
6.45419e-10
2.68264e-10
9.14255e-11
4.55481e-10
5.83325e-11
-2.75519e-11
1.71091e-11
1.79655e-12
-8.5599e-11
6.61601e-11
1.03881e-11
-9.01885e-11
1.46773e-10
4.05156e-11
7.58933e-11
2.76982e-10
1.23434e-10
1.41942e-09
4.23798e-10
4.27168e-10
-2.65461e-11
2.64669e-11
2.15398e-12
-8.90335e-11
1.00294e-10
1.23762e-11
-1.45519e-10
2.14764e-10
3.88275e-11
-1.02012e-10
3.81615e-10
1.04993e-10
1.70635e-10
6.03225e-10
2.25668e-10
1.76134e-09
8.07826e-10
5.63609e-10
-2.37572e-11
3.63545e-11
2.0114e-12
-8.22461e-11
1.33957e-10
1.27056e-11
-1.46547e-10
2.75704e-10
3.94504e-11
-1.76708e-10
4.67088e-10
8.9683e-11
-8.32671e-11
7.0986e-10
1.7925e-10
2.26627e-10
9.75517e-10
2.8703e-10
2.01687e-09
1.19429e-09
5.48007e-10
-2.10894e-11
4.36162e-11
3.64031e-13
-6.99404e-11
1.51564e-10
9.10744e-12
-1.24849e-10
2.94395e-10
3.20757e-11
-1.66068e-10
4.70031e-10
7.33363e-11
-1.61986e-10
6.77092e-10
1.30071e-10
-5.7591e-11
9.02003e-10
1.99583e-10
2.06915e-10
1.11253e-09
2.43693e-10
2.1221e-09
1.29257e-09
3.56612e-10
-2.07091e-11
-3.33234e-12
4.71006e-11
-5.91027e-11
1.4279e-10
1.49112e-12
-9.44715e-11
2.53201e-10
1.78706e-11
-1.21827e-10
3.72019e-10
4.60825e-11
-1.31966e-10
5.01884e-10
8.27298e-11
-1.15076e-10
6.34891e-10
1.1929e-10
-4.27022e-11
7.56716e-10
1.48175e-10
1.35211e-10
8.58403e-10
1.41457e-10
1.97302e-09
9.73013e-10
1.28808e-10
-5.40028e-11
-4.53323e-12
1.12955e-10
-1.46922e-11
-3.2199e-12
4.1429e-11
-6.91796e-11
1.74766e-10
5.46398e-12
-7.35364e-11
2.27598e-10
2.06104e-11
-7.57229e-11
2.82653e-10
3.83393e-11
-7.16772e-11
3.37444e-10
5.66242e-11
-6.22011e-11
3.85794e-10
7.06846e-11
-2.82746e-11
4.19299e-10
7.66624e-11
6.31849e-11
4.43559e-10
6.16183e-11
1.51469e-09
4.9534e-10
3.04645e-12
-5.57943e-11
6.96663e-13
1.03741e-10
-3.87013e-11
-2.69438e-12
5.65617e-11
-3.1246e-11
-4.4398e-12
1.93082e-11
-4.12981e-11
1.10084e-10
6.2455e-12
-3.22903e-11
1.17993e-10
1.1957e-11
-2.85692e-11
1.30948e-10
1.78566e-11
-2.56628e-11
1.43396e-10
2.34295e-11
-2.31465e-11
1.51443e-10
2.72691e-11
-1.20559e-11
1.52393e-10
2.73119e-11
1.97828e-11
1.51186e-10
2.02395e-11
8.93961e-10
1.65546e-10
-2.13601e-11
-2.94582e-11
1.14153e-12
5.01635e-11
-6.26068e-11
-9.61159e-14
2.4764e-11
7.31361e-11
-6.60018e-11
-2.02424e-12
1.20357e-11
6.84568e-11
-2.25795e-13
-2.971e-12
5.98945e-11
-5.04584e-11
-4.40424e-12
3.94253e-12
5.67547e-11
-8.37418e-13
-1.48613e-12
5.12753e-11
-1.7289e-13
-5.28303e-13
4.64055e-11
-1.04664e-11
3.05998e-11
1.9086e-12
-6.53092e-12
2.84565e-11
2.80256e-12
-5.32709e-12
2.92158e-11
3.76604e-12
-4.74261e-12
2.98599e-11
4.72765e-12
-4.34937e-12
2.95204e-11
5.344e-12
-2.35688e-12
2.77482e-11
5.0046e-12
3.24389e-12
2.58318e-11
3.53523e-12
3.48671e-10
2.75606e-11
-8.23335e-12
1.0236e-11
1.08237e-12
-2.86786e-11
4.0149e-11
6.19566e-12
-9.02477e-11
2.9756e-11
3.891e-12
-2.97834e-11
8.97456e-11
2.43723e-11
-9.68402e-11
1.19577e-10
2.89634e-11
-6.58147e-11
4.34583e-11
8.51788e-12
-2.39871e-11
1.69698e-10
7.43075e-11
6.06698e-11
2.87062e-10
1.39302e-10
-2.94126e-11
1.88727e-10
9.10387e-11
-5.82623e-11
6.57684e-11
3.11069e-11
-2.81247e-11
2.57765e-10
2.58196e-10
1.399e-09
5.35953e-10
7.41756e-10
9.62812e-10
4.74892e-10
8.97955e-10
5.2563e-10
3.2502e-10
8.81141e-10
2.00745e-10
1.19599e-10
5.98936e-10
3.44616e-11
-2.79781e-11
1.71463e-11
1.39475e-12
-9.59784e-11
6.68403e-11
8.06111e-12
-1.60441e-10
1.46261e-10
2.58229e-11
-1.17985e-10
2.62649e-10
7.08212e-11
1.4807e-10
4.16388e-10
1.53409e-10
1.7379e-09
5.49183e-10
3.81756e-10
-2.51779e-11
2.63056e-11
1.58201e-12
-9.15793e-11
1.02123e-10
9.658e-12
-1.6917e-10
2.19225e-10
3.05371e-11
-2.10461e-10
3.82718e-10
7.14776e-11
-1.10872e-10
5.89782e-10
1.4604e-10
2.09857e-10
8.11311e-10
2.38954e-10
2.01232e-09
9.69136e-10
4.44814e-10
-2.17837e-11
3.58592e-11
1.18957e-12
-8.04497e-11
1.36982e-10
9.49568e-12
-1.54652e-10
2.86753e-10
3.14586e-11
-2.1638e-10
4.84052e-10
7.27984e-11
-2.18826e-10
7.22646e-10
1.33736e-10
-9.32982e-11
9.78539e-10
2.11935e-10
2.14291e-10
1.20394e-09
2.69999e-10
2.19745e-09
1.34779e-09
3.72512e-10
-1.9298e-11
-6.01328e-13
4.28064e-11
-6.83283e-11
1.55548e-10
5.6056e-12
-1.28028e-10
3.1217e-10
2.48877e-11
-1.827e-10
5.02058e-10
6.09207e-11
-2.10878e-10
7.17741e-10
1.11598e-10
-1.89755e-10
9.39629e-10
1.67123e-10
-8.38005e-11
1.13887e-09
2.14342e-10
1.7038e-10
1.28573e-09
2.1537e-10
2.23176e-09
1.38857e-09
1.82868e-10
-5.98067e-11
-1.16675e-12
1.46428e-10
-1.05815e-11
-1.84259e-12
4.48325e-11
-1.01422e-10
2.74315e-10
1.26187e-11
-1.33763e-10
4.11989e-10
3.81263e-11
-1.54651e-10
5.55011e-10
7.1883e-11
-1.56682e-10
6.93576e-10
1.0905e-10
-1.38454e-10
8.12289e-10
1.39969e-10
-7.12077e-11
8.95333e-10
1.54177e-10
1.09001e-10
9.42702e-10
1.25951e-10
2.00133e-09
1.00214e-09
5.86842e-12
-8.30915e-11
3.12985e-12
1.944e-10
-3.24222e-11
-2.98686e-12
1.06443e-10
-1.99028e-11
-4.42755e-12
3.45133e-11
-9.2033e-11
2.6696e-10
1.68367e-11
-9.25939e-11
3.30469e-10
3.3098e-11
-9.08208e-11
3.87345e-10
5.06897e-11
-8.54146e-11
4.34579e-10
6.75898e-11
-7.72554e-11
4.64521e-10
7.95711e-11
-4.33398e-11
4.71698e-10
7.98067e-11
5.31082e-11
4.66337e-10
5.72956e-11
1.4783e-09
4.90322e-10
-6.19463e-11
-7.12841e-11
5.37304e-12
1.47234e-10
-5.18964e-11
-7.5188e-14
9.0411e-11
-5.44436e-11
-3.91632e-12
4.448e-11
-3.80419e-11
-6.0168e-12
1.29085e-11
-5.17325e-11
1.55162e-10
1.03424e-11
-3.9473e-11
1.60268e-10
1.5578e-11
-3.43866e-11
1.69143e-10
2.11692e-11
-3.11784e-11
1.74594e-10
2.67135e-11
-2.84838e-11
1.73532e-10
3.02635e-11
-1.60941e-11
1.63996e-10
2.82387e-11
1.78018e-11
1.52333e-10
1.88933e-11
8.36807e-10
1.57311e-10
-4.6006e-11
-3.7892e-11
1.88911e-12
6.77442e-11
-7.85834e-11
8.01123e-13
3.57717e-11
9.2078e-11
-8.46705e-11
-2.81335e-13
2.03644e-11
8.73271e-11
-8.17649e-15
-3.83433e-12
7.67528e-11
-7.6309e-11
-2.80618e-12
9.89479e-12
7.68518e-11
-3.0135e-13
-2.3892e-12
6.7339e-11
-5.69831e-14
-7.97033e-13
6.05756e-11
-5.56863e-11
-5.4443e-12
2.74715e-12
6.2326e-11
-1.01552e-12
-7.17755e-13
5.70019e-11
-2.04277e-13
-5.96655e-13
5.15479e-11
-7.72929e-14
-1.08266e-13
4.6591e-11
-1.306e-11
4.09865e-11
2.43859e-12
-8.0379e-12
3.6787e-11
3.26909e-12
-6.46165e-12
3.57991e-11
4.28838e-12
-5.74192e-12
3.46513e-11
5.33845e-12
-5.136e-12
3.23734e-11
5.85466e-12
-2.74984e-12
2.86003e-11
4.98555e-12
3.17342e-12
2.48618e-11
3.06023e-12
3.12927e-10
2.50641e-11
-1.29634e-11
1.01478e-11
8.33202e-13
-2.87231e-11
4.01913e-11
4.77213e-12
-9.97105e-11
2.95332e-11
2.96256e-12
-3.14186e-11
8.90542e-11
1.5446e-11
-1.69001e-10
1.1781e-10
1.7654e-11
-1.02244e-10
4.22319e-11
5.07835e-12
-3.36356e-11
1.60936e-10
4.27598e-11
-1.2761e-10
2.66951e-10
7.07263e-11
-1.18493e-10
1.73402e-10
3.99675e-11
-8.19401e-11
5.99536e-11
1.10682e-11
-2.92408e-11
2.55394e-10
9.30419e-11
1.31706e-10
5.02004e-10
2.15271e-10
1.86493e-11
4.15584e-10
1.90243e-10
-6.93091e-11
2.6229e-10
1.15862e-10
-8.02882e-11
8.64259e-11
3.73521e-11
-3.23042e-11
3.34682e-10
2.31855e-10
1.71724e-09
7.6764e-10
7.5498e-10
1.3139e-09
7.78719e-10
1.04908e-09
8.33366e-10
6.60107e-10
1.22351e-09
3.97582e-10
4.26997e-10
1.15463e-09
1.19631e-10
1.47228e-10
7.47616e-10
9.33139e-12
-2.58147e-11
1.67586e-11
1.02437e-12
-9.64847e-11
6.69357e-11
6.20473e-12
-1.82139e-10
1.47324e-10
1.99663e-11
-2.31735e-10
2.62009e-10
4.77371e-11
-1.29675e-10
4.06985e-10
9.90265e-11
1.87709e-10
5.60675e-10
1.64064e-10
1.98687e-09
6.60342e-10
3.03307e-10
-2.19378e-11
2.54159e-11
1.04381e-12
-8.56827e-11
1.01748e-10
7.18918e-12
-1.72209e-10
2.22613e-10
2.38277e-11
-2.49083e-10
3.89583e-10
5.63743e-11
-2.59901e-10
5.9571e-10
1.06625e-10
-1.23614e-10
8.14628e-10
1.73038e-10
1.94413e-10
1.00207e-09
2.25899e-10
2.18611e-09
1.09558e-09
3.04209e-10
-1.83271e-11
5.26863e-13
3.43613e-11
-7.23674e-11
1.35773e-10
6.43733e-12
-1.48439e-10
2.92671e-10
2.3989e-11
-2.26255e-10
5.00635e-10
5.84296e-11
-2.73502e-10
7.48104e-10
1.09964e-10
-2.54796e-10
1.00678e-09
1.70533e-10
-1.28192e-10
1.23506e-09
2.25206e-10
1.63571e-10
1.39056e-09
2.34038e-10
2.2986e-09
1.44906e-09
1.91575e-10
-6.07232e-11
2.75562e-12
1.53107e-10
-8.66918e-12
-4.94734e-13
4.13888e-11
-1.21333e-10
3.19831e-10
1.78563e-11
-1.8315e-10
5.27869e-10
4.84649e-11
-2.31219e-10
7.62137e-10
9.3092e-11
-2.48897e-10
9.97637e-10
1.45804e-10
-2.26821e-10
1.20114e-09
1.93224e-10
-1.31488e-10
1.34308e-09
2.17269e-10
1.23842e-10
1.40904e-09
1.80055e-10
2.25397e-09
1.43012e-09
7.74904e-12
-9.86741e-11
8.0795e-12
2.80652e-10
-2.88687e-11
-1.33728e-12
1.42369e-10
-1.33802e-11
-2.53793e-12
4.08477e-11
-1.38559e-10
4.41432e-10
2.9702e-11
-1.67868e-10
6.08828e-10
5.95835e-11
-1.84088e-10
7.64156e-10
9.457e-11
-1.85375e-10
8.91851e-10
1.29447e-10
-1.71388e-10
9.74302e-10
1.55131e-10
-1.05684e-10
1.00301e-09
1.56214e-10
8.5243e-11
9.88727e-10
1.07227e-10
1.95114e-09
9.91399e-10
-1.23402e-10
-1.07337e-10
1.3075e-11
2.93068e-10
-4.74902e-11
7.15528e-13
1.86292e-10
-4.33964e-11
-4.29353e-12
9.52617e-11
-2.48859e-11
-5.9523e-12
2.73096e-11
-1.14162e-10
3.82364e-10
2.73709e-11
-1.11627e-10
4.49371e-10
4.32252e-11
-1.08354e-10
4.99111e-10
6.01255e-11
-1.03149e-10
5.27383e-10
7.66972e-11
-9.49e-11
5.30398e-10
8.72869e-11
-5.69748e-11
5.05972e-10
8.10512e-11
4.67601e-11
4.69005e-10
4.96536e-11
1.38581e-09
4.6551e-10
-1.32827e-10
-8.90696e-11
9.04384e-12
2.02669e-10
-6.48211e-11
2.3157e-12
1.3108e-10
-7.29348e-11
-4.53991e-13
7.5213e-11
-6.73945e-11
-5.43099e-12
3.49797e-11
-4.36476e-11
-7.6931e-12
8.56286e-12
-6.33538e-11
2.07596e-10
1.33084e-11
-4.79655e-11
2.06414e-10
1.82342e-11
-4.14759e-11
2.06696e-10
2.4081e-11
-3.75901e-11
2.0207e-10
3.00233e-11
-3.35843e-11
1.89806e-10
3.29014e-11
-1.86463e-11
1.68645e-10
2.78229e-11
1.75491e-11
1.46412e-10
1.54155e-11
7.52576e-10
1.42889e-10
-7.21068e-11
-4.75204e-11
2.37966e-12
8.80162e-11
-9.73133e-11
1.44431e-12
5.03555e-11
1.14059e-10
-1.06217e-10
9.66587e-13
3.084e-11
1.09901e-10
6.18708e-14
-4.78726e-12
9.67952e-11
-9.80712e-11
-5.81637e-13
1.80657e-11
9.81453e-11
-2.56635e-14
-3.10653e-12
8.63236e-11
6.77147e-14
-1.0737e-12
7.77018e-11
-8.49125e-11
-3.67952e-12
8.53572e-12
8.45067e-11
-3.91084e-13
-1.13204e-12
7.49702e-11
-6.85941e-14
-9.18435e-13
6.73247e-11
4.99497e-14
-1.80411e-13
6.06288e-11
-6.10826e-11
-6.50912e-12
1.90581e-12
6.84331e-11
-1.18639e-12
-3.02612e-13
6.30972e-11
-2.40526e-13
-5.50581e-13
5.71963e-11
-9.04334e-14
-2.09606e-13
5.17396e-11
7.16977e-14
-1.02233e-13
4.66215e-11
-1.60643e-11
5.2474e-11
2.81577e-12
-9.77253e-12
4.51365e-11
3.70409e-12
-7.74725e-12
4.18055e-11
4.88124e-12
-6.74504e-12
3.84679e-11
5.98869e-12
-5.73487e-12
3.40084e-11
6.18119e-12
-2.82478e-12
2.81084e-11
4.56329e-12
3.34102e-12
2.26908e-11
2.09218e-12
2.70692e-10
2.16586e-11
-1.76431e-11
9.83407e-12
6.07378e-13
-2.61084e-11
3.98773e-11
3.64077e-12
-9.89784e-11
2.88601e-11
2.25528e-12
-3.03054e-11
8.90254e-11
1.18298e-11
-1.89168e-10
1.16695e-10
1.34778e-11
-1.09111e-10
4.10853e-11
3.86242e-12
-3.41346e-11
1.60031e-10
2.86485e-11
-2.44033e-10
2.62498e-10
4.43649e-11
-1.91259e-10
1.68361e-10
2.35859e-11
-1.15711e-10
5.72466e-11
6.09557e-12
-3.70244e-11
2.49751e-10
5.99945e-11
-1.41267e-10
4.79675e-10
1.24593e-10
-1.59148e-10
3.88621e-10
9.81267e-11
-1.4969e-10
2.40606e-10
5.17826e-11
-1.00971e-10
7.77497e-11
1.33355e-11
-3.39004e-11
3.44154e-10
1.00119e-10
1.71159e-10
7.57788e-10
2.72409e-10
8.44185e-11
7.29597e-10
2.98157e-10
-4.01439e-11
5.79403e-10
2.43923e-10
-1.16667e-10
3.45268e-10
1.38947e-10
-1.00155e-10
1.06123e-10
4.32034e-11
-3.44029e-11
4.02929e-10
1.8494e-10
1.96411e-09
9.98035e-10
6.82253e-10
1.62462e-09
1.11909e-09
1.0747e-09
1.15356e-09
1.08689e-09
1.43021e-09
6.39384e-10
8.70127e-10
1.59705e-09
2.39033e-10
5.2712e-10
1.43634e-09
3.25579e-11
1.69477e-10
8.75345e-10
-1.5711e-11
-2.19214e-11
1.60508e-11
6.9139e-13
-8.80876e-11
6.57865e-11
4.57833e-12
-1.81584e-10
1.47556e-10
1.5348e-11
-2.67965e-10
2.63865e-10
3.69918e-11
-2.85969e-10
4.0939e-10
7.13992e-11
-1.445e-10
5.62901e-10
1.17686e-10
1.70203e-10
6.92773e-10
1.55842e-10
2.15457e-09
7.47373e-10
2.08273e-10
-1.77336e-11
6.18067e-13
2.42043e-11
-7.3812e-11
9.92613e-11
4.97537e-12
-1.59023e-10
2.22496e-10
1.78891e-11
-2.52128e-10
3.95136e-10
4.41479e-11
-3.1414e-10
6.0753e-10
8.51916e-11
-3.01567e-10
8.32344e-10
1.35679e-10
-1.64288e-10
1.02816e-09
1.83036e-10
1.34058e-10
1.15686e-09
1.94132e-10
2.27713e-09
1.17857e-09
1.56791e-10
-6.01306e-11
3.98997e-12
1.31717e-10
-7.79556e-12
9.54985e-14
3.33921e-11
-1.31264e-10
2.91829e-10
1.72106e-11
-2.14e-10
5.10328e-10
4.5145e-11
-2.85782e-10
7.72461e-10
8.86358e-11
-3.21239e-10
1.04611e-09
1.42977e-10
-3.02535e-10
1.28645e-09
1.9486e-10
-1.91697e-10
1.4527e-09
2.23271e-10
9.88973e-11
1.52114e-09
1.86897e-10
2.31185e-09
1.49225e-09
7.29589e-12
-1.05598e-10
1.20109e-11
3.17499e-10
-2.67329e-11
5.80316e-13
1.49896e-10
-1.04176e-11
-7.7351e-13
3.91996e-11
-1.69696e-10
5.40311e-10
3.65506e-11
-2.29735e-10
7.98197e-10
7.42716e-11
-2.73281e-10
1.05803e-09
1.21895e-10
-2.92339e-10
1.28221e-09
1.71698e-10
-2.79443e-10
1.43449e-09
2.09868e-10
-1.89039e-10
1.4973e-09
2.12366e-10
8.32008e-11
1.47361e-09
1.38603e-10
2.19454e-09
1.41377e-09
-1.75858e-10
-1.3151e-10
2.19027e-11
4.51782e-10
-4.64618e-11
2.65557e-12
2.7563e-10
-3.6086e-11
-2.19905e-12
1.3472e-10
-1.64303e-11
-3.44011e-12
3.58322e-11
-1.71528e-10
6.48901e-10
4.69951e-11
-1.99857e-10
8.34089e-10
7.788e-11
-2.17263e-10
9.83284e-10
1.12045e-10
-2.222e-10
1.07726e-09
1.45541e-10
-2.09935e-10
1.10628e-09
1.66895e-10
-1.36419e-10
1.07057e-09
1.5381e-10
7.18033e-11
9.91633e-10
8.1948e-11
1.83263e-09
9.39928e-10
-2.62486e-10
-1.31877e-10
2.18108e-11
4.16436e-10
-6.01336e-11
5.13124e-12
2.83965e-10
-6.31794e-11
2.84408e-13
1.71958e-10
-5.4642e-11
-6.00605e-12
8.25629e-11
-2.9536e-11
-7.68887e-12
2.08868e-11
-1.37356e-10
5.1526e-10
3.54843e-11
-1.33614e-10
5.77198e-10
5.07867e-11
-1.29608e-10
6.07435e-10
6.82059e-11
-1.23615e-10
6.07643e-10
8.54767e-11
-1.11609e-10
5.77611e-10
9.36724e-11
-6.53715e-11
5.18421e-10
7.8359e-11
4.67219e-11
4.49832e-10
3.61574e-11
1.25009e-09
4.22057e-10
-2.06601e-10
-1.08999e-10
1.15703e-11
2.66548e-10
-7.96421e-11
4.17507e-12
1.83138e-10
-9.11373e-11
2.6371e-12
1.12909e-10
-9.06204e-11
-1.08782e-12
6.3419e-11
-7.8519e-11
-7.22152e-12
2.81147e-11
-4.87769e-11
-9.45108e-12
5.70815e-12
-7.67356e-11
2.64944e-10
1.54501e-11
-5.77397e-11
2.52235e-10
2.06621e-11
-4.94563e-11
2.40566e-10
2.72941e-11
-4.39728e-11
2.2359e-10
3.34663e-11
-3.74182e-11
1.98758e-10
3.4471e-11
-1.90858e-11
1.6532e-10
2.51757e-11
1.88504e-11
1.33404e-10
9.39055e-12
6.53032e-10
1.23174e-10
-9.73038e-11
-5.80894e-11
2.73272e-12
1.1021e-10
-1.1809e-10
1.85711e-12
6.73501e-11
1.38344e-10
-1.31415e-10
1.86398e-12
4.47912e-11
1.36082e-10
1.02115e-13
-5.83435e-12
1.19853e-10
-1.22942e-10
1.03918e-12
2.86105e-11
1.23551e-10
6.55185e-14
-3.86208e-12
1.08885e-10
1.71741e-13
-1.39446e-12
9.80856e-11
-1.09319e-10
-9.97589e-13
1.67224e-11
1.07981e-10
-5.14541e-14
-1.44582e-12
9.6145e-11
7.26973e-14
-1.26253e-12
8.63712e-11
2.18101e-13
-2.6222e-13
7.77959e-11
-9.35534e-11
-4.63222e-12
7.42897e-12
9.27832e-11
-4.86148e-13
-3.82934e-13
8.30574e-11
-8.52251e-14
-8.4504e-13
7.47415e-11
5.33522e-14
-3.33825e-13
6.73343e-11
2.5104e-13
-1.41269e-13
6.05907e-11
-6.697e-11
-7.58826e-12
1.27615e-12
7.51879e-11
-1.35306e-12
-1.56033e-13
6.96395e-11
-2.81535e-13
-4.72654e-13
6.33008e-11
-1.06339e-13
-2.46883e-13
5.73399e-11
7.83405e-14
-1.64025e-13
5.17231e-11
2.22845e-13
-2.11293e-14
4.64198e-11
-1.93309e-11
6.40991e-11
3.18394e-12
-1.16545e-11
5.29218e-11
4.24209e-12
-9.05788e-12
4.68119e-11
5.59494e-12
-7.61436e-12
4.10399e-11
6.57128e-12
-6.0451e-12
3.41987e-11
6.13575e-12
-2.63984e-12
2.61932e-11
3.70033e-12
3.52899e-12
1.9447e-11
7.74534e-13
2.26842e-10
1.76278e-11
-2.17282e-11
9.38106e-12
4.08971e-13
-2.18774e-11
3.89109e-11
2.66665e-12
-8.91804e-11
2.76753e-11
1.62861e-12
-2.65523e-11
8.84816e-11
9.01063e-12
-1.8641e-10
1.1441e-10
1.01654e-11
-1.04604e-10
3.94029e-11
2.86791e-12
-3.1491e-11
1.602e-10
2.19747e-11
-2.78279e-10
2.6007e-10
3.35827e-11
-2.06845e-10
1.63998e-10
1.77781e-11
-1.18664e-10
5.45135e-11
4.60715e-12
-3.60089e-11
2.50627e-10
4.29547e-11
-3.01151e-10
4.73677e-10
8.27258e-11
-2.76396e-10
3.77641e-10
6.02685e-11
-2.16961e-10
2.30063e-10
2.91192e-11
-1.28191e-10
7.29036e-11
6.71463e-12
-3.88933e-11
3.45702e-10
7.1465e-11
-1.57518e-10
7.4554e-10
1.75591e-10
-1.80017e-10
7.00804e-10
1.7398e-10
-2.06209e-10
5.41848e-10
1.27569e-10
-1.87922e-10
3.14061e-10
6.22303e-11
-1.1866e-10
9.36428e-11
1.51061e-11
-3.6527e-11
4.25368e-10
9.54213e-11
1.52462e-10
1.02327e-09
2.95864e-10
1.22469e-10
1.10516e-09
3.83517e-10
1.29879e-11
1.02075e-09
3.87217e-10
-1.17301e-10
7.64861e-10
2.92895e-10
-1.65349e-10
4.24816e-10
1.59797e-10
-1.14445e-10
1.20819e-10
4.87835e-11
-3.45292e-11
4.56311e-10
1.27309e-10
2.1277e-09
1.20242e-09
5.47147e-10
1.86142e-09
1.4587e-09
9.78892e-10
1.43982e-09
1.56786e-09
1.47033e-09
8.97943e-10
1.43762e-09
1.86128e-09
3.88715e-10
1.0767e-09
1.97815e-09
6.5316e-11
6.07685e-10
1.67864e-09
-5.48919e-11
1.81768e-10
9.51472e-10
-4.11987e-11
-1.73827e-11
4.34876e-13
1.5265e-11
-7.42139e-11
6.37047e-11
3.17508e-12
-1.64119e-10
1.45838e-10
1.13924e-11
-2.66112e-10
2.6468e-10
2.85163e-11
-3.37736e-10
4.13917e-10
5.60605e-11
-3.31272e-10
5.73098e-10
9.09067e-11
-1.88707e-10
7.10545e-10
1.24333e-10
1.04273e-10
7.99524e-10
1.33475e-10
2.23788e-09
8.04272e-10
1.07499e-10
-5.93136e-11
3.2494e-12
9.5813e-11
-7.36901e-12
1.9322e-13
2.35845e-11
-1.35553e-10
2.1899e-10
1.27704e-11
-2.30515e-10
3.96097e-10
3.34429e-11
-3.18304e-10
6.17148e-10
6.70513e-11
-3.67978e-10
8.53574e-10
1.10701e-10
-3.56187e-10
1.06347e-09
1.54029e-10
-2.38114e-10
1.20738e-09
1.7893e-10
5.70171e-11
1.26381e-09
1.50766e-10
2.28286e-09
1.2135e-09
5.30873e-12
-1.0793e-10
1.17921e-11
2.86359e-10
-2.54114e-11
1.31159e-12
1.29179e-10
-9.12654e-12
1.35155e-14
3.20875e-11
-1.86668e-10
5.11148e-10
3.33636e-11
-2.68737e-10
7.8786e-10
6.87472e-11
-3.3616e-10
1.08173e-09
1.15898e-10
-3.75205e-10
1.34508e-09
1.67206e-10
-3.70584e-10
1.53098e-09
2.0772e-10
-2.68378e-10
1.61291e-09
2.10844e-10
4.38443e-11
1.58685e-09
1.31648e-10
2.24783e-09
1.47414e-09
-1.85168e-10
-1.4537e-10
2.63794e-11
5.39803e-10
-4.59915e-11
4.32649e-12
3.13282e-10
-3.20019e-11
2.49559e-13
1.44789e-10
-1.241e-11
-1.13739e-12
3.63166e-11
-2.10769e-10
8.17342e-10
5.66461e-11
-2.71184e-10
1.10651e-09
9.7118e-11
-3.19578e-10
1.3624e-09
1.44022e-10
-3.48125e-10
1.54157e-09
1.90537e-10
-3.41013e-10
1.61828e-09
2.19961e-10
-2.39557e-10
1.58901e-09
2.00104e-10
6.2563e-11
1.47318e-09
8.84319e-11
2.06543e-09
1.33823e-09
-3.69709e-10
-1.61146e-10
3.55119e-11
6.6456e-10
-6.10517e-11
8.44847e-12
4.46907e-10
-5.77996e-11