/*--------------------------------*- C++ -*----------------------------------*\
  =========                 |
  \\      /  F ield         | OpenFOAM: The Open Source CFD Toolbox
   \\    /   O peration     | Website:  https://openfoam.org
    \\  /    A nd           | Version:  7
     \\/     M anipulation  |
\*---------------------------------------------------------------------------*/
FoamFile
{
    version     2.0;
    format      ascii;
    class       volVectorField;
    location    "100";
    object      U;
}
// * * * * * * * * * * * * * * * * * * * * * * * * * * * * * * * * * * * * * //

dimensions      [0 1 -1 0 0 0 0];

internalField   nonuniform List<vector> 
43868
(
(0.000655557 0.00183227 -0.000649832)
(0.00157062 0.00507195 -0.00194028)
(1.55311e-05 0.00100656 -4.40646e-06)
(0.0011956 0.00339639 -0.000829591)
(0.00187542 0.00796911 -0.00265728)
(4.55621e-05 0.00295173 -3.87249e-05)
(0.00325298 0.0105238 -0.00276835)
(-4.65592e-06 0.000453828 -1.00262e-06)
(7.08707e-05 0.00211246 -9.4715e-06)
(0.00117826 0.00430013 -0.000814017)
(0.00189268 0.0100583 -0.00278672)
(7.51837e-05 0.00499703 -0.000109246)
(0.00476577 0.0181128 -0.00472667)
(-7.68484e-06 0.0014486 -8.24502e-06)
(0.000237839 0.00691826 -8.11031e-05)
(0.00362802 0.0138191 -0.00288975)
(-7.24046e-06 0.00057917 -2.00366e-06)
(1.00376e-05 0.00113376 7.47577e-07)
(0.000132664 0.0029513 -1.04525e-05)
(0.00109141 0.00481006 -0.000806288)
(0.0018616 0.0113015 -0.00263203)
(9.91177e-05 0.00682862 -0.000169382)
(0.0054719 0.0242961 -0.00590208)
(-2.31297e-06 0.00269467 -7.35118e-06)
(0.000454409 0.0128016 -0.000270743)
(0.00607141 0.0247798 -0.00537045)
(-9.05495e-06 0.00178312 6.54866e-06)
(5.53047e-05 0.00390111 1.42572e-06)
(0.000475499 0.0100097 -0.000106006)
(0.00351851 0.0157105 -0.00288711)
(-1.6698e-05 0.000660466 -2.32698e-06)
(-7.90851e-06 0.00134477 2.69211e-06)
(6.47102e-05 0.00179053 1.91547e-06)
(0.000181766 0.00356385 -1.08426e-05)
(0.000960364 0.00506123 -0.000802011)
(0.00184349 0.0119331 -0.00238692)
(0.000110503 0.00818387 -0.00014632)
(0.00567336 0.0282459 -0.00617135)
(9.0991e-06 0.00405996 3.50195e-05)
(0.000674014 0.018564 -0.000501045)
(0.00773798 0.0344917 -0.00739974)
(3.46003e-06 0.0031835 6.28396e-05)
(0.000147509 0.00769814 2.96417e-05)
(0.000978828 0.0192503 -0.000393562)
(0.00628997 0.0287837 -0.00550116)
(-2.7101e-05 0.00202353 2.06437e-05)
(1.28759e-05 0.00452411 5.23723e-05)
(0.000242842 0.0063063 1.3017e-05)
(0.000674452 0.0122816 -0.000119556)
(0.00315901 0.0166644 -0.00287154)
(-3.60386e-05 0.000864701 -2.48606e-06)
(-2.78038e-05 0.0015073 7.01845e-06)
(4.18311e-05 0.00202759 5.95696e-06)
(0.00015278 0.00240102 1.84194e-06)
(0.000203671 0.00396192 -1.01782e-05)
(0.000794768 0.00514971 -0.000800056)
(0.00184548 0.0122224 -0.00216767)
(0.000109223 0.00900717 -4.24555e-05)
(0.00570181 0.0303549 -0.00591959)
(1.89374e-05 0.00528904 0.000148174)
(0.000825299 0.0229941 -0.000558468)
(0.00851552 0.0411576 -0.00834334)
(2.10864e-05 0.00459375 0.000232577)
(0.000272043 0.0120633 0.000148153)
(0.00155939 0.0289083 -0.000826842)
(0.00860932 0.0410324 -0.00793014)
(-1.11947e-05 0.00357876 0.0001444)
(9.8943e-05 0.008665 0.000246238)
(0.000523446 0.0127664 7.02435e-05)
(0.0014496 0.024091 -0.000468793)
(0.0058316 0.0308881 -0.00548962)
(-6.13005e-05 0.00260687 7.16642e-05)
(-2.4251e-05 0.00506144 0.000109122)
(0.00018237 0.0070198 9.4576e-05)
(0.000541275 0.00854424 1.39431e-05)
(0.00077471 0.0137662 -0.000118572)
(0.00264074 0.0170243 -0.00285849)
(-0.000104245 0.0013314 1.28373e-05)
(-7.77183e-05 0.00186504 1.61883e-05)
(4.28507e-05 0.00224457 1.25622e-05)
(0.000146199 0.00264532 7.22622e-06)
(0.000243161 0.00291544 1.34929e-06)
(0.000206623 0.00418286 -8.85274e-06)
(0.000613594 0.00514954 -0.00079925)
(0.00185351 0.0123483 -0.00202948)
(0.000100801 0.00943963 8.37096e-05)
(0.00569837 0.0313668 -0.00554646)
(2.29701e-05 0.00616823 0.000303455)
(0.000886268 0.0257422 -0.000382621)
(0.00877699 0.044936 -0.00838786)
(3.23502e-05 0.00576287 0.000519535)
(0.0003803 0.0160634 0.000421768)
(0.00201852 0.0366772 -0.00108756)
(0.0100011 0.0499508 -0.00937838)
(1.4832e-05 0.00506504 0.000475857)
(0.000229013 0.0131083 0.000720232)
(0.000878019 0.0204761 0.000240669)
(0.00242811 0.036964 -0.00106477)
(0.00833492 0.0446889 -0.00802699)
(-3.51436e-05 0.00447762 0.000359657)
(8.3638e-05 0.00962879 0.000504901)
(0.000440304 0.013874 0.000417557)
(0.00110545 0.0175181 7.48663e-05)
(0.00171487 0.027293 -0.000479658)
(0.00495629 0.0317489 -0.00544968)
(-0.000190957 0.00383409 0.000242626)
(-0.000132409 0.00622473 0.000244142)
(0.000206473 0.00776269 0.000185535)
(0.000527362 0.00928271 0.000114662)
(0.000852045 0.0104218 9.49314e-06)
(0.000793474 0.0145976 -0.000106053)
(0.00204936 0.0170565 -0.00284809)
(-0.000199858 0.00188192 3.79104e-05)
(-0.000214538 0.00249865 5.53035e-05)
(2.64782e-05 0.00269004 2.46912e-05)
(0.000197523 0.00290425 1.46528e-05)
(0.000279359 0.00318407 7.24225e-06)
(0.000312811 0.003305 1.20313e-06)
(0.000205575 0.00428514 -7.42244e-06)
(0.000433172 0.00511655 -0.000798951)
(0.00184953 0.0124018 -0.00195703)
(9.2843e-05 0.00965096 0.00019818)
(0.00569114 0.0318314 -0.00523853)
(2.2743e-05 0.00669027 0.000439836)
(0.000891545 0.0272144 -0.000103101)
(0.00883434 0.0468469 -0.00806647)
(3.52218e-05 0.0065394 0.000831679)
(0.000437761 0.0189448 0.000799441)
(0.00225168 0.0416429 -0.000993067)
(0.0106392 0.0552926 -0.00978362)
(3.06619e-05 0.00617517 0.000976343)
(0.000337148 0.0169075 0.00146586)
(0.00119873 0.0277002 0.000597998)
(0.00328991 0.0477292 -0.00155496)
(0.0100877 0.0551822 -0.00970967)
(7.32154e-06 0.00603182 0.000976272)
(0.000260464 0.0143155 0.00142031)
(0.000783224 0.0216035 0.00114869)
(0.00178943 0.0284835 0.000246537)
(0.00297649 0.0424174 -0.00113983)
(0.00726442 0.0463284 -0.00797195)
(-0.000145752 0.00608434 0.000937002)
(-6.40778e-06 0.0116218 0.00106313)
(0.000528289 0.0152518 0.000824949)
(0.00109034 0.0186574 0.000507131)
(0.00171496 0.0214888 5.84925e-05)
(0.00177767 0.029111 -0.000435622)
(0.00387973 0.0319044 -0.00540899)
(-0.000388136 0.00576113 0.00122038)
(-0.000450484 0.00823841 0.000589799)
(0.000186539 0.00926248 0.000372563)
(0.000702352 0.0101789 0.000222196)
(0.000973107 0.0112468 0.000117121)
(0.00109357 0.0118308 9.15034e-06)
(0.000780754 0.0149885 -8.90676e-05)
(0.00145051 0.0169613 -0.0028402)
(-0.000883567 0.00842604 0.00308149)
(-0.000600253 0.00310455 0.000132335)
(-1.69292e-05 0.0034191 6.66659e-05)
(0.000251679 0.00340524 2.78133e-05)
(0.000393367 0.0034961 1.47127e-05)
(0.000404689 0.00362745 7.14377e-06)
(0.000359044 0.00358291 1.61585e-06)
(0.000209797 0.00432964 -6.22439e-06)
(0.000259618 0.00508861 -0.000798798)
(9.10572e-05 0.00975281 0.000280829)
(0.00567817 0.0320438 -0.00502657)
(0.00182909 0.0124594 -0.00183966)
(2.14813e-05 0.00696914 0.000528742)
(0.000879437 0.027949 0.000159169)
(0.00883272 0.0477672 -0.00773332)
(3.27853e-05 0.00696893 0.00108254)
(0.000453304 0.0206656 0.0011417)
(0.00232042 0.0443699 -0.000685344)
(0.010881 0.0581337 -0.00963872)
(3.4441e-05 0.00681083 0.00146039)
(0.000391189 0.0194935 0.00226394)
(0.00139275 0.0329582 0.00109617)
(0.00379523 0.0548285 -0.00163613)
(0.0110477 0.0617512 -0.0103556)
(3.27629e-05 0.00694704 0.00173483)
(0.000397402 0.0179815 0.0027283)
(0.00108241 0.0284569 0.00223553)
(0.00241798 0.0389521 0.000597176)
(0.00418153 0.0554268 -0.00176832)
(0.00904233 0.0577348 -0.00969892)
(-5.17838e-05 0.00738023 0.00197073)
(0.000245952 0.0166045 0.00271064)
(0.000952777 0.0233635 0.00222935)
(0.00175819 0.0295952 0.00137831)
(0.00273852 0.0351688 0.000202217)
(0.00314051 0.0455821 -0.00105762)
(0.00576678 0.0467625 -0.0078793)
(-0.000364233 0.0083342 0.00281743)
(-0.000318851 0.0147275 0.00232844)
(0.00056764 0.0179137 0.00160893)
(0.00141952 0.0203379 0.000994732)
(0.00193072 0.0227996 0.000522094)
(0.0021893 0.0244323 5.81409e-05)
(0.00172925 0.0299829 -0.000365885)
(0.00275796 0.0317678 -0.00537529)
(-0.00143298 0.0140524 0.00463139)
(-0.00130563 0.0109841 0.00205264)
(8.68025e-05 0.0116683 0.000802204)
(0.000890555 0.01188 0.000427198)
(0.00134375 0.0123228 0.000229374)
(0.00139792 0.0128469 0.000115833)
(0.00125148 0.0128215 1.65291e-05)
(0.000773685 0.0151598 -7.31729e-05)
(0.000870862 0.0168741 -0.0028345)
(-0.00146441 0.00995358 0.00377374)
(-0.00401164 0.00959288 0.0368795)
(-0.000127942 0.00418847 0.000149697)
(0.000318989 0.00418974 7.07712e-05)
(0.000524389 0.00406607 2.84666e-05)
(0.000573679 0.00401311 1.45395e-05)
(0.000504374 0.0039822 7.59336e-06)
(0.000392465 0.00378775 2.40156e-06)
(0.000218793 0.0043651 -5.34755e-06)
(9.3333e-05 0.00508722 -0.000798507)
(2.14309e-05 0.00711227 0.00058166)
(0.000868557 0.0283108 0.000342657)
(9.32548e-05 0.00987656 0.000389991)
(0.00882458 0.0482084 -0.00749105)
(0.00564859 0.0322905 -0.00470818)
(0.00180408 0.0124883 -0.00158381)
(2.93972e-05 0.0071821 0.00125302)
(0.000453659 0.0215911 0.00137153)
(0.00232058 0.0457614 -0.000357605)
(0.0109613 0.0595655 -0.00937158)
(3.1787e-05 0.00710357 0.00180747)
(0.000404804 0.020965 0.00290785)
(0.00147157 0.0361186 0.00156356)
(0.00399605 0.0588322 -0.00140647)
(0.0114942 0.0653925 -0.0103727)
(3.97341e-05 0.00730561 0.00235619)
(0.000453336 0.0201998 0.00397603)
(0.00125217 0.0332519 0.00336967)
(0.00282524 0.0466585 0.00110068)
(0.00496984 0.064234 -0.00200063)
(0.0101343 0.0651057 -0.0104324)
(1.21234e-05 0.00775429 0.00289611)
(0.000438142 0.0198555 0.00468034)
(0.00129017 0.0300214 0.0041552)
(0.00233288 0.0396066 0.00263113)
(0.00368383 0.0483761 0.000499723)
(0.00451347 0.0600165 -0.00168561)
(0.00730537 0.0585789 -0.00956139)
(-0.00017577 0.00880126 0.00397063)
(8.92714e-05 0.019534 0.00503061)
(0.00109355 0.0264976 0.00405071)
(0.00220733 0.0317559 0.00267723)
(0.00299446 0.0365414 0.00141722)
(0.00346807 0.0400582 0.000199875)
(0.00303484 0.0471413 -0.000888307)
(0.00412938 0.0466555 -0.00779175)
(-0.00107794 0.0126262 0.00663983)
(-0.00111709 0.0185606 0.0056557)
(0.000498749 0.0217963 0.00321506)
(0.00177833 0.0233856 0.00186591)
(0.00258545 0.0248126 0.00103506)
(0.00273822 0.0261311 0.000517933)
(0.00248966 0.0264593 9.07698e-05)
(0.00165501 0.0303686 -0.000296535)
(0.00166015 0.0316201 -0.00535019)
(-0.00288801 0.0208834 0.00691259)
(-0.00215755 0.0138451 0.0215244)
(-0.000201153 0.01491 0.00241062)
(0.00110731 0.01449 0.000875588)
(0.00177018 0.014246 0.000441902)
(0.00194741 0.0141681 0.000228603)
(0.00173591 0.014108 0.000121462)
(0.00135952 0.0135384 2.94178e-05)
(0.000776976 0.0152883 -6.06847e-05)
(0.000313781 0.0168713 -0.00283024)
(-0.000281966 0.0111417 0.00391826)
(-0.00431915 0.0117963 0.0391155)
(-0.00538146 0.00545345 0.0417171)
(-0.000678167 -0.000468643 0.0266409)
(0.000383786 0.00509151 0.000161112)
(0.000683922 0.00494775 7.37312e-05)
(0.000758832 0.00466495 2.91129e-05)
(0.000713278 0.0044616 1.5214e-05)
(0.000584241 0.00427636 8.6177e-06)
(0.000421674 0.00396012 3.32049e-06)
(0.000228304 0.0044222 -4.74169e-06)
(-7.50409e-05 0.00511825 -0.00079819)
(2.90249e-05 0.00728356 0.00135841)
(0.000453695 0.0220695 0.00151025)
(2.25749e-05 0.00729289 0.000660463)
(0.00230547 0.0464579 -0.000117832)
(0.00085164 0.0287592 0.000601255)
(9.32527e-05 0.00999735 0.000526824)
(0.0109856 0.0602795 -0.0091483)
(0.00881155 0.0487455 -0.00709998)
(0.00560257 0.0324814 -0.00412235)
(0.00179047 0.0124481 -0.00124398)
(2.82769e-05 0.00721979 0.00201784)
(0.000402732 0.0217205 0.00334183)
(0.00149418 0.0378297 0.00189122)
(0.00404748 0.0609213 -0.00109662)
(0.0116853 0.0672966 -0.0101915)
(3.71672e-05 0.00737604 0.00274807)
(0.000457599 0.0213101 0.00487572)
(0.00131353 0.0360529 0.00428179)
(0.00301414 0.0513276 0.00159429)
(0.00534511 0.0693176 -0.00187812)
(0.0107079 0.0693181 -0.010531)
(3.48163e-05 0.00766367 0.00349797)
(0.00050951 0.0213993 0.00628498)
(0.00144734 0.0342656 0.0059549)
(0.00267674 0.0467975 0.00390861)
(0.00432415 0.0581863 0.000942436)
(0.00548629 0.0699757 -0.001962)
(0.00832217 0.0663675 -0.010279)
(-3.37932e-05 0.0083082 0.00453816)
(0.000408028 0.0217347 0.00748582)
(0.00148874 0.0326106 0.00691905)
(0.00280065 0.0415305 0.00493687)
(0.00388119 0.0493834 0.00268049)
(0.00464193 0.0552033 0.000480168)
(0.00437471 0.0623465 -0.00141004)
(0.00528307 0.0585895 -0.00940369)
(-0.000447379 0.0101233 0.00674851)
(-0.000346732 0.0222721 0.00906524)
(0.00113514 0.0303125 0.00706753)
(0.00269553 0.0353704 0.00471754)
(0.00383026 0.0391421 0.00278828)
(0.00417626 0.0420512 0.00140308)
(0.00390133 0.0433332 0.000286723)
(0.00280773 0.0478403 -0.000705668)
(0.00249536 0.0464743 -0.00772339)
(-0.00236907 0.024321 0.0118342)
(-0.0014434 0.0124 0.0141657)
(0.00019031 0.0263869 0.0070066)
(0.00215068 0.0276412 0.00354516)
(0.00333105 0.0282342 0.00193307)
(0.0037085 0.0285936 0.00103357)
(0.00337699 0.0286996 0.000542129)
(0.00267565 0.0278857 0.000148074)
(0.00158183 0.0306368 -0.000240427)
(0.000599821 0.0316204 -0.00533161)
(-0.000628607 0.025191 0.0076095)
(-0.00495948 0.0206652 0.0265283)
(-0.00298904 0.0101414 0.0266787)
(0.00129736 0.0180357 0.00247933)
(0.00227029 0.0171449 0.000911409)
(0.00254966 0.0163531 0.000447508)
(0.00242062 0.0157413 0.000237582)
(0.00200177 0.0151361 0.000135743)
(0.00144776 0.0141323 4.41841e-05)
(0.000779568 0.0154847 -5.18303e-05)
(-0.000252393 0.0169746 -0.00282905)
(0.000541216 0.0121146 0.00404514)
(-0.00104451 0.013689 0.0389132)
(-0.00573268 0.00786289 0.044882)
(-0.000484576 -0.000553708 0.0266219)
(-0.00609853 0.00319981 0.0421931)
(-0.000778674 -0.000737738 0.0266018)
(-0.00011273 -9.81741e-05 0.0412426)
(0.0008753 0.00604438 0.0001769)
(0.000964498 0.00565232 7.77591e-05)
(0.0009319 0.00521095 3.10516e-05)
(0.000823523 0.00485958 1.68618e-05)
(0.00065722 0.00454752 1.00267e-05)
(0.000447094 0.00412864 4.22319e-06)
(0.000231579 0.00450791 -4.45825e-06)
(-0.000259002 0.00517336 -0.000797988)
(2.82361e-05 0.00726214 0.00213803)
(0.000399678 0.0220944 0.0036059)
(3.07039e-05 0.00740248 0.00150055)
(0.00149816 0.0387205 0.00209634)
(0.000454857 0.0226731 0.00171808)
(2.30556e-05 0.00749699 0.00081144)
(0.00405058 0.0619844 -0.000854592)
(0.00227307 0.0473309 0.000230805)
(0.000808947 0.0292292 0.0009828)
(8.6611e-05 0.0100333 0.000673583)
(0.0117658 0.0682759 -0.0100092)
(0.0110023 0.0611755 -0.00876414)
(0.00877118 0.0492304 -0.00628554)
(0.00555816 0.0324699 -0.00328298)
(0.00178388 0.0123327 -0.000832276)
(3.30374e-05 0.00734948 0.00296411)
(0.000447782 0.0218086 0.00542235)
(0.00132346 0.0375318 0.00489883)
(0.00308158 0.0538743 0.00195526)
(0.00548835 0.0720228 -0.00163081)
(0.010986 0.071581 -0.0104042)
(3.69668e-05 0.00746217 0.00381303)
(0.000510212 0.0219513 0.00730883)
(0.00147955 0.0365322 0.00724995)
(0.00281873 0.0510968 0.00493214)
(0.00464781 0.0641755 0.00139439)
(0.00600765 0.0758229 -0.0018969)
(0.00889969 0.0709071 -0.0103819)
(1.95406e-05 0.00773609 0.00478076)
(0.000527187 0.0222757 0.00910311)
(0.00164276 0.0359174 0.0092412)
(0.0030879 0.048062 0.0070113)
(0.00442128 0.0587811 0.00394609)
(0.00545624 0.066506 0.000886144)
(0.005369 0.0729614 -0.00162152)
(0.00607907 0.0665359 -0.0100605)
(-0.000123107 0.00845588 0.00629937)
(0.000236182 0.0229317 0.0111222)
(0.00160567 0.0351546 0.0106527)
(0.00330507 0.044531 0.00805471)
(0.00471362 0.0517649 0.00511451)
(0.00533677 0.0570565 0.00263508)
(0.00516439 0.0596554 0.000633508)
(0.00395864 0.0634069 -0.00108031)
(0.00320817 0.0584181 -0.00927183)
(-0.00100346 0.0242431 0.0142372)
(-0.000607451 0.00982749 0.00974386)
(0.000960708 0.0337572 0.0118821)
(0.00314493 0.0396171 0.0079001)
(0.00475574 0.0431855 0.00487827)
(0.00541713 0.045265 0.00277668)
(0.00509187 0.0461703 0.00146286)
(0.00411911 0.045543 0.000442592)
(0.00253479 0.0482855 -0.000552248)
(0.000903846 0.0464868 -0.00767301)
(-0.000299253 0.0325882 0.0137561)
(-0.00361274 0.0239523 0.0218368)
(-0.00181794 0.0107779 0.0176133)
(0.00242228 0.0326054 0.00730361)
(0.00413999 0.0329086 0.00364318)
(0.00475945 0.0324531 0.00194786)
(0.00460046 0.0317334 0.00106885)
(0.00386342 0.030738 0.000604579)
(0.00280736 0.029038 0.000214106)
(0.00149925 0.0310183 -0.000200566)
(-0.000483688 0.0318149 -0.00532638)
(0.00152927 0.0284081 0.00776489)
(-0.00137223 0.0252682 0.0270375)
(-0.0063005 0.0167309 0.0333712)
(-0.00365545 0.00662041 0.0287897)
(0.00283105 0.0211248 0.00255315)
(0.00320397 0.0195664 0.000943664)
(0.00313614 0.01824 0.000468948)
(0.00279199 0.0171158 0.000260215)
(0.00223776 0.0160695 0.000156242)
(0.00151933 0.0147087 5.81863e-05)
(0.000759026 0.0157751 -4.76139e-05)
(-0.000868794 0.0171539 -0.00283183)
(0.00125572 0.0132728 0.00420977)
(0.000865558 0.0152322 0.0389206)
(-0.00158351 0.00993279 0.0446758)
(-5.13608e-05 -0.00054392 0.0266128)
(-0.00698099 0.00573933 0.0457922)
(-0.000568304 -0.000907518 0.0266329)
(-0.000120709 -0.000113353 0.0416413)
(-0.00655484 0.00223492 0.0417543)
(-0.000835929 -0.000404438 0.0265415)
(-0.000118827 -0.000189841 0.0414656)
(-4.50928e-05 -1.34223e-05 0.0371683)
(0.00120739 0.00692929 0.000195606)
(0.00116229 0.00631748 8.39575e-05)
(0.00106654 0.00571375 3.44107e-05)
(0.000930336 0.00524408 1.92919e-05)
(0.000728183 0.00482741 1.1668e-05)
(0.00045983 0.0043008 4.98456e-06)
(0.000217028 0.00460643 -4.66991e-06)
(-0.000463026 0.00523024 -0.000797988)
(3.28597e-05 0.00730885 0.0030796)
(0.000441981 0.0220247 0.00573352)
(3.04022e-05 0.00729841 0.00229663)
(0.00131871 0.0382847 0.00527783)
(0.000394009 0.0225416 0.00396584)
(2.99353e-05 0.00749875 0.00170141)
(0.00310067 0.055209 0.00218845)
(0.0014962 0.0398451 0.00240391)
(0.000448143 0.0233698 0.0021266)
(2.24748e-05 0.00761188 0.00100205)
(0.00553701 0.07342 -0.00142261)
(0.00403419 0.0633316 -0.000492715)
(0.00217733 0.0482896 0.000790158)
(0.000744479 0.0294446 0.00141859)
(7.82707e-05 0.00995082 0.00080295)
(0.0111183 0.0727702 -0.0102529)
(0.0118528 0.0695328 -0.00967304)
(0.01097 0.0620659 -0.00787717)
(0.00870382 0.0493768 -0.00506115)
(0.00551961 0.0322291 -0.0022176)
(0.00178127 0.0121731 -0.000381945)
(3.41086e-05 0.00728875 0.00395983)
(0.000493745 0.0220857 0.00787708)
(0.00146652 0.0376345 0.00804241)
(0.00285589 0.0534184 0.00562881)
(0.00478031 0.0674655 0.00173616)
(0.0062449 0.0789782 -0.00169885)
(0.00920142 0.0733879 -0.0102643)
(3.10413e-05 0.00731662 0.00485462)
(0.000536471 0.0221798 0.00997687)
(0.00164814 0.0373984 0.0107345)
(0.00316145 0.0517382 0.00849701)
(0.00466279 0.0644927 0.00495661)
(0.00589232 0.0734431 0.00130008)
(0.00594142 0.0792564 -0.00153764)
(0.00655299 0.0712152 -0.0101242)
(-1.25827e-05 0.00752253 0.00593547)
(0.000465277 0.0224737 0.0121169)
(0.00176967 0.0371624 0.0130713)
(0.00352972 0.0499941 0.0107486)
(0.00514279 0.0604913 0.00722004)
(0.00603989 0.0681298 0.00384994)
(0.00603602 0.0718333 0.00108493)
(0.00481542 0.0743329 -0.00116871)
(0.00370948 0.0664023 -0.0098638)
(-5.02323e-05 0.0231313 0.0148222)
(-0.000190895 0.00812661 0.00763595)
(0.00155032 0.0367946 0.0152054)
(0.00372742 0.0474389 0.0120543)
(0.00561013 0.0551539 0.00830049)
(0.0065871 0.06014 0.00506123)
(0.00642284 0.0626073 0.0027303)
(0.00533932 0.0625149 0.000925001)
(0.0034024 0.0640292 -0.000790323)
(0.00116309 0.0584512 -0.00917458)
(0.000601688 0.0360822 0.0178149)
(-0.00161091 0.0237421 0.0190536)
(-0.000738893 0.00916179 0.0113808)
(0.00341672 0.0434078 0.0127184)
(0.0056542 0.0478404 0.00806642)
(0.00671953 0.0498234 0.00487491)
(0.00668561 0.0501655 0.00284999)
(0.0057474 0.0493025 0.00162673)
(0.00421704 0.0472544 0.000623361)
(0.0022262 0.0488599 -0.000442596)
(-0.000734287 0.0467741 -0.00765855)
(0.00256967 0.0389564 0.0139595)
(-0.000913834 0.0323988 0.0239676)
(-0.00446972 0.021996 0.0270346)
(-0.0021921 0.00862619 0.019852)
(0.00491632 0.0383277 0.00738795)
(0.00583459 0.0375787 0.00370279)
(0.00586032 0.0361243 0.00202126)
(0.00529129 0.0344056 0.00116288)
(0.00427359 0.0325422 0.000694719)
(0.00289581 0.0301427 0.000276652)
(0.00136705 0.0315704 -0.000182112)
(-0.00165653 0.032141 -0.00533819)
(0.0035592 0.031791 0.00800059)
(0.00154783 0.0287495 0.0268849)
(-0.00199056 0.0214196 0.0340547)
(-0.00765747 0.0128087 0.0366137)
(-0.00413111 0.00435309 0.0295609)
(0.00393332 0.0239594 0.00264692)
(0.00387799 0.021811 0.00100327)
(0.00359174 0.0199549 0.000510709)
(0.00314307 0.0184266 0.00029465)
(0.00246099 0.0170224 0.000180265)
(0.00154563 0.0152957 6.94094e-05)
(0.000677694 0.0161037 -5.01497e-05)
(-0.00154821 0.0173296 -0.00283789)
(0.00169237 0.0143951 0.00438903)
(0.00245504 0.0170009 0.0392169)
(0.000823373 0.0116401 0.0446617)
(3.87104e-05 -0.000529264 0.0266797)
(-0.00221518 0.0079683 0.0456254)
(-7.56049e-05 -0.000921899 0.0266297)
(1.89809e-05 -0.000118563 0.0417159)
(-0.00804611 0.00491506 0.0454787)
(-0.000643788 -0.000501316 0.0266071)
(-0.000128045 -0.000222933 0.041919)
(-2.32651e-05 -1.75425e-05 0.0372848)
(-0.00688989 0.00159094 0.0413634)
(-0.000867484 -0.000169373 0.0264641)
(-0.000125613 -0.00017403 0.0416067)
(-4.64863e-05 -4.04482e-05 0.0371997)
(1.38973e-05 -1.09079e-05 0.0386098)
(0.0014353 0.00777864 0.00021759)
(0.00131599 0.00694632 9.24352e-05)
(0.00120677 0.0062171 3.91068e-05)
(0.00104766 0.00565422 2.23784e-05)
(0.000787416 0.00513059 1.34351e-05)
(0.000443522 0.00445797 5.48599e-06)
(0.000172334 0.0046794 -5.51709e-06)
(-0.000675739 0.00524731 -0.000798673)
(3.38095e-05 0.00717178 0.00402744)
(0.000483321 0.0220871 0.00818064)
(3.47797e-05 0.00723417 0.0032219)
(0.00144876 0.0381569 0.00849989)
(0.000434284 0.0222505 0.00614369)
(3.00023e-05 0.00726602 0.00251188)
(0.00285678 0.0546247 0.00606104)
(0.00130322 0.0391944 0.00579378)
(0.000369728 0.0229693 0.00450374)
(2.54149e-05 0.00747548 0.00190124)
(0.00482815 0.0692 0.00196251)
(0.00310989 0.0569015 0.00254164)
(0.00146218 0.0411666 0.00301185)
(0.000425277 0.0237966 0.00265245)
(2.08446e-05 0.00758107 0.00119574)
(0.00634729 0.0806247 -0.00152455)
(0.00557643 0.0752085 -0.00110308)
(0.00391971 0.0648725 0.000134706)
(0.00201994 0.0488241 0.00148775)
(0.000673282 0.0292969 0.00185157)
(7.18268e-05 0.00976576 0.000884201)
(0.00935453 0.0747089 -0.0101204)
(0.0112773 0.0743197 -0.00995924)
(0.0118844 0.0708668 -0.00881313)
(0.0108754 0.0624972 -0.00644024)
(0.00862262 0.0491194 -0.00345215)
(0.00548955 0.0318398 -0.00102427)
(0.0017813 0.0120267 7.10862e-05)
(3.10035e-05 0.00704747 0.00486185)
(0.000517785 0.0219492 0.0103973)
(0.00161048 0.037984 0.011575)
(0.00314797 0.0536298 0.00941069)
(0.00474208 0.0676235 0.00564854)
(0.00608784 0.077274 0.00161614)
(0.00622668 0.0826786 -0.00134607)
(0.00681169 0.0737946 -0.00998555)
(1.65449e-05 0.00700435 0.00570021)
(0.000509559 0.0218729 0.012517)
(0.00175689 0.0377683 0.0144241)
(0.00352845 0.0527782 0.0124898)
(0.00526847 0.0655818 0.00871985)
(0.00636725 0.0749138 0.00481235)
(0.00651409 0.0793189 0.00151726)
(0.00532196 0.0808363 -0.00101358)
(0.00401406 0.0711214 -0.00987776)
(0.000338454 0.0220154 0.0147715)
(-4.39695e-05 0.00720745 0.00667149)
(0.00176305 0.0375476 0.0170131)
(0.00387627 0.0514975 0.0149265)
(0.00590688 0.0627646 0.0110457)
(0.00715041 0.0706003 0.00710113)
(0.00720329 0.0747213 0.0039607)
(0.00613936 0.0751141 0.0014963)
(0.00400755 0.0750863 -0.00075184)
(0.00134346 0.0664561 -0.00971816)
(0.00134578 0.0371851 0.0197189)
(-0.00032003 0.0225143 0.0174404)
(-0.000236821 0.007778 0.00841045)
(0.00395259 0.0493689 0.016723)
(0.00640133 0.0584087 0.0122885)
(0.00785596 0.0640432 0.00822508)
(0.00807355 0.066589 0.00515142)
(0.00712637 0.0666097 0.00302446)
(0.00529665 0.0646048 0.00126756)
(0.00276032 0.0647496 -0.000580985)
(-0.000958001 0.0588115 -0.00914621)
(0.00348076 0.0459686 0.018554)
(0.000188146 0.035684 0.0230915)
(-0.00203451 0.0227787 0.0219818)
(-0.000880414 0.00815616 0.0127778)
(0.00638033 0.0519957 0.0127856)
(0.00793393 0.054917 0.00807095)
(0.00826927 0.0553623 0.0049975)
(0.00763967 0.0541554 0.00307572)
(0.00624659 0.0519588 0.0018652)
(0.00422447 0.04886 0.000793576)
(0.00183321 0.049664 -0.00039304)
(-0.00249098 0.0472292 -0.0076889)
(0.00560104 0.0449356 0.0140118)
(0.00245487 0.0389985 0.02383)
(-0.00142769 0.0304749 0.0295653)
(-0.00540919 0.0192136 0.0308347)
(-0.00249905 0.00665362 0.0211247)
(0.00687143 0.0434262 0.00749225)
(0.00709774 0.0417694 0.00386308)
(0.00671038 0.0393773 0.00218103)
(0.00591779 0.0368944 0.00130823)
(0.00464159 0.0343513 0.000799833)
(0.0028918 0.0312624 0.00032637)
(0.00111959 0.0321797 -0.000193669)
(-0.00293603 0.0324322 -0.00536344)
(0.0049004 0.0349505 0.00828664)
(0.00422192 0.0323672 0.0269836)
(0.00142372 0.0250746 0.0338656)
(-0.00278098 0.0175616 0.0374971)
(-0.00892147 0.0101266 0.0380196)
(-0.00449086 0.00290237 0.0298388)
(0.00470829 0.0266434 0.00279609)
(0.00440118 0.0239077 0.0010933)
(0.00405346 0.021651 0.000572559)
(0.00351939 0.0198107 0.00033843)
(0.00264032 0.0180456 0.000205959)
(0.001474 0.0158275 7.63345e-05)
(0.000498524 0.0163331 -6.05652e-05)
(-0.0022468 0.0173534 -0.00284799)
(0.00199342 0.0155537 0.00459827)
(0.00340416 0.018674 0.0397688)
(0.00281546 0.0135023 0.0449732)
(9.56331e-05 -0.000512864 0.026862)
(0.000610974 0.00986507 0.0456015)
(3.10136e-05 -0.000917378 0.0267005)
(0.000104808 -0.0001219 0.0418518)
(-0.00290104 0.00732143 0.0453362)
(-0.00010383 -0.000507571 0.0266139)
(1.65155e-05 -0.000236642 0.042006)
(9.58012e-05 -1.99866e-05 0.037378)
(-0.00891855 0.00432829 0.045118)
(-0.000701217 -0.000191985 0.026547)
(-0.000137437 -0.000207014 0.0421051)
(-2.53098e-05 -5.06776e-05 0.0373213)
(8.1602e-05 -1.15853e-05 0.0386819)
(-0.00712213 0.00109 0.0411274)
(-0.000885221 -7.55557e-05 0.026399)
(-0.000132084 -0.000155226 0.0416659)
(-4.86767e-05 -5.72961e-05 0.0372273)
(1.36697e-05 -2.69611e-05 0.0386126)
(4.68274e-05 -1.50592e-06 0.0381051)
(0.0016145 0.00859577 0.000242982)
(0.00148984 0.00759683 0.000103551)
(0.00137814 0.0067731 4.52523e-05)
(0.00116759 0.00611951 2.61327e-05)
(0.000811438 0.00544325 1.52492e-05)
(0.000385103 0.00455502 5.73252e-06)
(9.60912e-05 0.00466413 -6.95133e-06)
(-0.000877486 0.0051659 -0.000800665)
(3.05123e-05 0.00688702 0.00485077)
(0.000503524 0.0217534 0.0105954)
(3.48522e-05 0.00700389 0.00409927)
(0.00157676 0.038199 0.0120337)
(0.000469005 0.0220293 0.00855581)
(3.30536e-05 0.00704732 0.00337867)
(0.00311763 0.0545763 0.00994402)
(0.00141692 0.0387385 0.00909831)
(0.000405561 0.0223325 0.00672369)
(2.61064e-05 0.00710585 0.00269467)
(0.00475877 0.0692713 0.00608137)
(0.00284082 0.0560972 0.00665088)
(0.00124037 0.0401501 0.00658432)
(0.000327266 0.0230569 0.00505534)
(1.98218e-05 0.007286 0.00204687)
(0.00616845 0.0793027 0.00182773)
(0.00486844 0.0714133 0.00231014)
(0.00305388 0.0589278 0.00325543)
(0.00138007 0.0420299 0.00382058)
(0.000388651 0.0237772 0.00320475)
(1.9128e-05 0.00740062 0.00133569)
(0.00636208 0.0844733 -0.00118357)
(0.00645901 0.082747 -0.00125476)
(0.00551047 0.0773087 -0.000512748)
(0.00368104 0.0658438 0.000994747)
(0.00183339 0.048735 0.00226363)
(0.000617831 0.0288282 0.00219684)
(6.90862e-05 0.00954352 0.00090873)
(0.00694773 0.0751767 -0.00983149)
(0.00954799 0.0764454 -0.0098402)
(0.0113996 0.076041 -0.00915305)
(0.0118073 0.0716576 -0.00731601)
(0.0107354 0.0623419 -0.00445103)
(0.00854807 0.0485776 -0.00160656)
(0.00547495 0.0314624 0.000193252)
(0.00178287 0.0119516 0.000519876)
(2.27801e-05 0.00670856 0.00555535)
(0.000500258 0.0214001 0.0126457)
(0.00169948 0.0378438 0.0151038)
(0.00345855 0.0540848 0.0134805)
(0.00526449 0.0682943 0.00964563)
(0.00648815 0.0786606 0.0054711)
(0.006739 0.0834628 0.00183851)
(0.00558406 0.0843777 -0.000791649)
(0.00418335 0.0737299 -0.00970736)
(0.000441298 0.0211814 0.0145735)
(-9.92212e-07 0.00671687 0.00619951)
(0.00175924 0.0374682 0.0178576)
(0.00380205 0.0533162 0.0165806)
(0.00590285 0.0669425 0.0128205)
(0.00732855 0.0768134 0.00854362)
(0.00756431 0.0821433 0.00492002)
(0.00656565 0.082837 0.00200528)
(0.0043514 0.0816614 -0.000511932)
(0.0014508 0.071189 -0.00969505)
(0.00164782 0.0371077 0.0204461)
(0.000210508 0.021376 0.0164379)
(-6.29409e-05 0.00696329 0.00710465)
(0.00404577 0.0520961 0.0190916)
(0.00653941 0.0645738 0.0152264)
(0.00825047 0.0733911 0.0108782)
(0.00872018 0.0781529 0.0071787)
(0.00787306 0.0792504 0.00436433)
(0.00591828 0.0773739 0.00198987)
(0.00305028 0.0758816 -0.000447276)
(-0.00112613 0.0668605 -0.00967482)
(0.00398462 0.0499967 0.0212673)
(0.00110597 0.0365949 0.0228653)
(-0.000508923 0.0218908 0.0190919)
(-0.000282802 0.00727931 0.00915626)
(0.00696701 0.0606473 0.0168457)
(0.00894957 0.067691 0.0121629)
(0.00965174 0.0711456 0.0083392)
(0.00913563 0.0715516 0.00551688)
(0.00756653 0.0698116 0.00345789)
(0.00509705 0.0665012 0.00158777)
(0.00199764 0.0657191 -0.000488244)
(-0.00320409 0.0593421 -0.00920096)
(0.00687074 0.0548282 0.018457)
(0.00335959 0.0458028 0.0236591)
(-0.000151924 0.0347188 0.0264989)
(-0.00251421 0.0212438 0.0246908)
(-0.00101505 0.00701593 0.0138686)
(0.00893804 0.0594079 0.0127455)
(0.00969713 0.0609699 0.00827779)
(0.00944612 0.0600493 0.00533522)
(0.00844335 0.0577153 0.00343414)
(0.00664381 0.0545427 0.00214043)
(0.00408342 0.0504751 0.000926352)
(0.00127811 0.050517 -0.000424508)
(-0.0043743 0.0475712 -0.00775209)
(0.00783236 0.0502673 0.0141606)
(0.00594899 0.0451656 0.0236423)
(0.00228819 0.0372484 0.0293882)
(-0.00210161 0.0276638 0.0338136)
(-0.00636735 0.0164141 0.0333263)
(-0.00273978 0.00501196 0.0217425)
(0.00829478 0.048083 0.00777562)
(0.00807212 0.0455784 0.00414937)
(0.00753352 0.0425167 0.00242483)
(0.00656049 0.0394738 0.00149303)
(0.0049138 0.036266 0.000910866)
(0.00270389 0.032265 0.000356829)
(0.000700406 0.0325639 -0.000237873)
(-0.0042207 0.0323818 -0.00540239)
(0.00583751 0.0380588 0.00867731)
(0.00592657 0.0357115 0.0272987)
(0.00453242 0.0287746 0.0339801)
(0.00112932 0.0214302 0.0372811)
(-0.00369248 0.0149662 0.0390796)
(-0.0100255 0.00826985 0.0386295)
(-0.00475359 0.00194258 0.0299615)
(0.00531388 0.029206 0.00300241)
(0.00497209 0.0260484 0.00121776)
(0.00460318 0.0235042 0.000654281)
(0.00389535 0.0213657 0.000391066)
(0.00270036 0.019089 0.0002324)
(0.00126446 0.016143 7.96578e-05)
(0.000225894 0.0162383 -7.6536e-05)
(-0.00288638 0.0170153 -0.00286198)
(0.00223564 0.0167755 0.00485101)