/*--------------------------------*- C++ -*----------------------------------*\
  =========                 |
  \\      /  F ield         | OpenFOAM: The Open Source CFD Toolbox
   \\    /   O peration     | Website:  https://openfoam.org
    \\  /    A nd           | Version:  7
     \\/     M anipulation  |
\*---------------------------------------------------------------------------*/
FoamFile
{
    version     2.0;
    format      ascii;
    class       surfaceScalarField;
    location    "409";
    object      phi;
}
// * * * * * * * * * * * * * * * * * * * * * * * * * * * * * * * * * * * * * //

dimensions      [0 3 -1 0 0 0 0];

internalField   nonuniform List<scalar> 
125460
(
4.69309e-18
3.25698e-16
3.10816e-11
9.51391e-18
3.39116e-16
3.44851e-11
3.2683e-18
6.2755e-16
3.92856e-11
-1.02882e-16
9.42265e-16
3.10817e-11
1.92808e-17
4.56346e-16
3.81993e-11
5.65762e-18
6.64277e-16
4.35875e-11
1.96114e-16
2.22818e-15
3.44852e-11
-1.68596e-19
9.67924e-16
4.94312e-11
-1.38395e-16
2.3517e-15
3.92858e-11
1.5682e-16
-7.96018e-16
3.10817e-11
2.56774e-17
4.50905e-16
4.22374e-11
1.61596e-17
8.73632e-16
4.82821e-11
3.41179e-16
1.07475e-15
3.81995e-11
-1.77221e-18
1.04088e-15
5.4844e-11
2.92088e-16
4.69092e-15
4.35877e-11
-7.39132e-17
-2.05504e-15
3.44852e-11
-5.33355e-18
1.17353e-15
6.18444e-11
-1.63639e-16
3.85847e-15
4.94314e-11
2.1079e-16
-2.02143e-15
3.92857e-11
-1.00515e-16
8.1122e-16
3.10817e-11
3.47257e-17
6.4914e-16
4.66094e-11
1.89833e-17
8.78828e-16
5.3386e-11
6.05133e-16
3.05115e-15
4.22375e-11
7.16621e-18
1.34367e-15
6.0751e-11
3.977e-16
2.78076e-15
4.82823e-11
-1.50681e-16
-8.92354e-16
3.81994e-11
-1.15343e-17
1.28945e-15
6.86166e-11
4.10156e-16
7.41287e-15
5.48443e-11
-1.28565e-16
-4.30279e-15
4.35876e-11
1.45775e-16
1.928e-15
3.44852e-11
-1.06809e-17
1.36694e-15
7.68241e-11
-1.6673e-16
5.57739e-15
6.18448e-11
2.61425e-16
-3.33189e-15
4.94313e-11
-1.35723e-16
2.02467e-15
3.92858e-11
1.53109e-16
-7.10785e-16
3.10816e-11
4.26917e-17
6.2274e-16
5.13198e-11
2.83743e-17
1.2325e-15
5.8912e-11
7.02337e-16
1.19168e-15
4.66096e-11
4.31878e-18
1.38686e-15
6.7173e-11
8.24518e-16
6.48986e-15
5.33862e-11
-3.55267e-16
-2.87017e-15
4.22375e-11
-6.43476e-18
1.61862e-15
7.60069e-11
4.81124e-16
4.66767e-15
6.07513e-11
-1.42348e-16
-2.37017e-15
4.82822e-11
2.52579e-16
9.17736e-16
3.81995e-11
-2.20706e-17
1.52331e-15
8.52366e-11
5.56157e-16
9.47534e-15
6.86169e-11
-1.90512e-16
-6.79754e-15
5.48442e-11
2.2009e-16
4.05538e-15
4.35877e-11
-3.50763e-17
-1.8185e-15
3.44852e-11
-1.51213e-17
1.42131e-15
9.45975e-11
-1.47718e-16
7.21187e-15
7.68246e-11
2.97345e-16
-4.88491e-15
6.18446e-11
-1.63765e-16
3.32097e-15
4.94314e-11
2.03364e-16
-1.7981e-15
3.92857e-11
-4.4903e-17
3.36943e-16
3.10816e-11
5.82867e-17
9.47771e-16
5.63719e-11
3.2247e-17
1.20393e-15
6.48658e-11
9.23276e-16
3.96068e-15
5.13201e-11
1.11289e-17
1.90086e-15
7.41261e-11
8.45592e-16
3.07258e-15
5.89122e-11
-4.01931e-16
-9.92989e-16
4.66095e-11
-1.65618e-17
1.71272e-15
8.40416e-11
1.09433e-15
1.03145e-14
6.71733e-11
-4.90603e-16
-6.08123e-15
5.33861e-11
4.61269e-16
2.63037e-15
4.22375e-11
-2.17946e-17
1.88292e-15
9.4417e-11
5.92781e-16
6.79657e-15
7.60073e-11
-1.37975e-16
-4.01323e-15
6.07512e-11
2.8515e-16
2.37741e-15
4.82823e-11
-8.81545e-17
-7.99389e-16
3.81994e-11
-2.91788e-17
1.60586e-15
1.04956e-10
7.37231e-16
1.12666e-14
8.52371e-11
-2.64771e-16
-8.67504e-15
6.86167e-11
3.09667e-16
6.40911e-15
5.48443e-11
-7.78e-17
-3.80707e-15
4.35876e-11
5.18349e-17
8.05993e-16
3.44851e-11
-1.648e-17
1.4463e-15
1.15223e-10
-7.51414e-17
8.73526e-15
9.45982e-11
3.18291e-16
-6.37479e-15
7.68243e-11
-1.744e-16
4.81752e-15
6.18447e-11
2.50611e-16
-2.96155e-15
4.94313e-11
-6.10883e-17
8.37023e-16
3.92856e-11
5.72156e-17
-3.40805e-16
3.10816e-11
6.727e-17
8.23696e-16
6.17565e-11
5.17321e-17
1.78436e-15
7.12513e-11
9.54316e-16
1.30849e-15
5.63721e-11
8.64669e-18
1.90743e-15
8.16175e-11
1.24101e-15
8.47364e-15
6.48661e-11
-5.79865e-16
-3.77607e-15
5.132e-11
-1.51784e-17
2.27192e-15
9.27408e-11
1.03737e-15
5.17347e-15
7.41265e-11
-4.41879e-16
-2.62825e-15
5.89121e-11
5.17721e-16
1.00022e-15
4.66096e-11
-4.05184e-17
2.05239e-15
1.04398e-10
1.43046e-15
1.32313e-14
8.40421e-11
-6.46108e-16
-9.66424e-15
6.71732e-11
6.29323e-16
5.59177e-15
5.33862e-11
-2.56944e-16
-2.53794e-15
4.22375e-11
-3.49008e-17
1.94843e-15
1.16261e-10
7.37341e-16
8.90562e-15
9.44176e-11
-1.37555e-16
-5.94066e-15
7.60071e-11
3.34573e-16
3.99191e-15
6.07513e-11
-7.26504e-17
-2.11525e-15
4.82822e-11
8.5202e-17
3.75321e-16
3.81994e-11
-3.13421e-17
1.64923e-15
1.2784e-10
9.34103e-16
1.2417e-14
1.04957e-10
-3.59064e-16
-1.03053e-14
8.52368e-11
4.19269e-16
8.20475e-15
6.86169e-11
-1.27155e-16
-6.01542e-15
5.48441e-11
7.93914e-17
1.68752e-15
4.35875e-11
-3.54263e-17
-8.23681e-16
3.44851e-11
-1.37274e-17
1.39179e-15
1.38504e-10
4.96834e-17
9.88553e-15
1.15224e-10
2.9257e-16
-7.79653e-15
9.45977e-11
-1.67618e-16
6.24098e-15
7.68246e-11
2.8502e-16
-4.33451e-15
6.18445e-11
-7.49971e-17
1.37095e-15
4.94313e-11
7.63041e-17
-8.5805e-16
3.92856e-11
-3.70193e-18
6.59504e-17
3.10815e-11
7.79094e-17
1.20833e-15
6.74559e-11
5.66356e-17
1.58036e-15
7.80572e-11
1.1122e-15
4.99473e-15
6.17568e-11
2.99655e-17
2.75225e-15
8.96521e-11
1.1567e-15
3.33505e-15
7.12516e-11
-5.67383e-16
-1.10556e-15
5.6372e-11
-2.61355e-17
2.33934e-15
1.02113e-10
1.63446e-15
1.35422e-14
8.16179e-11
-7.81858e-16
-8.06357e-15
6.48659e-11
6.7646e-16
3.36172e-15
5.132e-11
-4.60967e-17
2.65828e-15
1.15204e-10
1.27357e-15
7.60856e-15
9.27413e-11
-4.93231e-16
-4.46029e-15
7.41263e-11
6.09997e-16
2.58688e-15
5.89122e-11
-2.92412e-16
-9.05506e-16
4.66095e-11
-6.11217e-17
2.16398e-15
1.2855e-10
1.83914e-15
1.57654e-14
1.04398e-10
-8.35958e-16
-1.23761e-14
8.40418e-11
8.32238e-16
8.88768e-15
6.71733e-11
-3.66054e-16
-5.38447e-15
5.33861e-11
1.58719e-16
1.09402e-15
4.22374e-11
-4.35118e-17
1.98023e-15
1.41609e-10
9.53868e-16
1.08792e-14
1.16261e-10
-1.47002e-16
-7.87212e-15
9.44172e-11
4.0135e-16
5.83917e-15
7.60073e-11
-6.08775e-17
-3.57789e-15
6.07511e-11
9.13604e-17
9.68527e-16
4.82821e-11
-7.24384e-17
-3.90709e-16
3.81993e-11
-2.42833e-17
1.60904e-15
1.53671e-10
1.15124e-15
1.31023e-14
1.27841e-10
-4.5543e-16
-1.13495e-14
1.04956e-10
5.55093e-16
9.76513e-15
8.52371e-11
-1.87277e-16
-7.67715e-15
6.86167e-11
1.1162e-16
2.66303e-15
5.48441e-11
-5.98796e-17
-1.73734e-15
4.35875e-11
1.98784e-17
1.59136e-16
3.44851e-11
-1.61173e-18
1.31007e-15
1.6387e-10
2.42652e-16
1.06472e-14
1.38505e-10
2.20597e-16
-8.87642e-15
1.15223e-10
-1.15817e-16
7.57576e-15
9.45981e-11
3.06627e-16
-5.65246e-15
7.68243e-11
-8.23737e-17
1.99321e-15
6.18446e-11
9.32578e-17
-1.40977e-15
4.94312e-11
-5.51529e-18
1.56848e-16
3.92856e-11
2.69758e-17
-9.30586e-17
3.10815e-11
9.25682e-17
1.04159e-15
7.34507e-11
7.00369e-17
2.2663e-15
8.5261e-11
1.04465e-15
1.32214e-15
6.74562e-11
2.87204e-17
2.51037e-15
9.82157e-11
1.49001e-15
1.07293e-14
7.80576e-11
-6.97702e-16
-4.85773e-15
6.17567e-11
-5.22955e-18
3.26031e-15
1.12166e-10
1.42226e-15
5.62902e-15
8.96525e-11
-6.37287e-16
-2.87642e-15
7.12515e-11
6.63826e-16
1.06789e-15
5.63721e-11
-6.75563e-17
2.82565e-15
1.26847e-10
2.13009e-15
1.74399e-14
1.02114e-10
-1.01741e-15
-1.28904e-14
8.16177e-11
9.10619e-16
7.20083e-15
6.4866e-11
-4.51038e-16
-3.34985e-15
5.13199e-11
-7.6149e-17
2.7239e-15
1.41857e-10
1.55933e-15
1.00837e-14
1.15205e-10
-5.49374e-16
-6.67889e-15
9.2741e-11
7.3237e-16
4.35771e-15
7.41265e-11
-3.17025e-16
-2.38589e-15
5.89121e-11
1.66726e-16
4.09198e-16
4.66094e-11
-7.61188e-17
2.26056e-15
1.56579e-10
2.29122e-15
1.72677e-14
1.28551e-10
-1.06781e-15
-1.47199e-14
1.04398e-10
1.08305e-15
1.14184e-14
8.40421e-11
-4.93446e-16
-8.56201e-15
6.71731e-11
2.17971e-16
2.31467e-15
5.3386e-11
-1.58921e-16
-1.14241e-15
4.22374e-11
-4.12046e-17
1.90655e-15
1.70222e-10
1.2566e-15
1.24269e-14
1.4161e-10
-2.07755e-16
-9.72453e-15
1.16261e-10
4.89643e-16
7.66987e-15
9.44176e-11
-5.2385e-17
-5.28674e-15
7.60071e-11
1.01742e-16
1.62565e-15
6.07511e-11
-7.59645e-17
-1.02301e-15
4.82821e-11
3.06061e-17
7.34707e-17
3.81993e-11
-8.95244e-18
1.50826e-15
1.81815e-10
1.38434e-15
1.32933e-14
1.53672e-10
-5.59617e-16
-1.1964e-14
1.27841e-10
7.00084e-16
1.07764e-14
1.04957e-10
-2.64439e-16
-9.122e-15
8.52367e-11
1.50332e-16
3.40795e-15
6.86167e-11
-8.9042e-17
-2.7468e-15
5.4844e-11
2.80072e-17
3.24442e-16
4.35874e-11
2.20777e-17
-1.96719e-16
3.4485e-11
1.28327e-17
1.17467e-15
1.90285e-10
4.78106e-16
1.09071e-14
1.63872e-10
8.54923e-17
-9.60981e-15
1.38504e-10
-1.99222e-17
8.57959e-15
1.15224e-10
2.87741e-16
-6.90735e-15
9.45977e-11
-8.31956e-17
2.58551e-15
7.68243e-11
1.03706e-16
-2.0526e-15
6.18444e-11
-6.5341e-18
2.54386e-16
4.94311e-11
3.4785e-17
-2.3302e-16
3.92855e-11
3.62604e-17
-1.88955e-17
3.10815e-11
1.32545e-16
1.79338e-15
7.97004e-11
8.46113e-17
1.98552e-15
9.2838e-11
1.10984e-15
6.03377e-15
7.34509e-11
4.30843e-17
3.51146e-15
1.0728e-10
1.26045e-15
3.37173e-15
8.52614e-11
-6.26929e-16
-1.25268e-15
6.74561e-11
-1.47937e-17
3.0584e-15
1.2288e-10
1.95811e-15
1.72146e-14
9.82162e-11
-9.38587e-16
-1.04251e-14
7.80574e-11
7.62556e-16
4.17609e-15
6.17568e-11
-4.86065e-17
3.8187e-15
1.39334e-10
1.74093e-15
8.29311e-15
1.12166e-10
-7.23414e-16
-4.88698e-15
8.96523e-11
7.85756e-16
2.74232e-15
7.12516e-11
-4.49685e-16
-1.0422e-15
5.6372e-11
-1.07193e-16
2.96137e-15
1.56193e-10
2.73609e-15
2.08899e-14
1.26848e-10
-1.31097e-15
-1.65923e-14
1.02114e-10
1.19551e-15
1.15155e-14
8.16179e-11
-6.19917e-16
-7.174e-15
6.48659e-11
2.21239e-16
1.41161e-15
5.13199e-11
-1.01855e-16
2.79509e-15
1.72787e-10
1.9368e-15
1.25311e-14
1.41858e-10
-6.17245e-16
-8.95399e-15
1.15204e-10
8.79903e-16
6.45139e-15
9.27413e-11
-3.52597e-16
-4.04198e-15
7.41262e-11
1.89546e-16
1.05001e-15
5.89121e-11
-1.85694e-16
-4.39244e-16
4.66094e-11
-7.91815e-17
2.20792e-15
1.88216e-10
2.77741e-15
1.80584e-14
1.5658e-10
-1.31517e-15
-1.60906e-14
1.28551e-10
1.38698e-15
1.36144e-14
1.04398e-10
-6.5121e-16
-1.0974e-14
8.40418e-11
2.87901e-16
3.67379e-15
6.71731e-11
-2.19989e-16
-2.43822e-15
5.3386e-11
5.10843e-17
2.21087e-16
4.22373e-11
-2.8311e-17
1.78588e-15
2.01397e-10
1.67284e-15
1.34559e-14
1.70223e-10
-3.37253e-16
-1.11878e-14
1.4161e-10
6.33616e-16
9.39693e-15
1.16261e-10
-5.17325e-17
-6.99946e-15
9.44172e-11
1.16291e-16
2.38862e-15
7.60071e-11
-8.40937e-17
-1.72152e-15
6.0751e-11
3.53565e-17
1.79669e-16
4.8282e-11
3.11013e-17
-1.06989e-16
3.81992e-11
1.88194e-17
1.36211e-15
2.11122e-10
1.65168e-15
1.30589e-14
1.81816e-10
-6.68588e-16
-1.21237e-14
1.53671e-10
8.57876e-16
1.13743e-14
1.27841e-10
-3.42389e-16
-1.00479e-14
1.04956e-10
1.98052e-16
4.05426e-15
8.52368e-11
-1.24966e-16
-3.52078e-15
6.86166e-11
3.76973e-17
5.09018e-16
5.4844e-11
2.43715e-17
-4.24496e-16
4.35874e-11
7.06604e-17
-3.21997e-17
3.4485e-11
3.79502e-17
1.00559e-15
2.16209e-10
7.38423e-16
1.06754e-14
1.90287e-10
-8.67525e-17
-9.87139e-15
1.63871e-10
1.33857e-16
9.24175e-15
1.38505e-10
2.28565e-16
-7.86263e-15
1.15223e-10
-6.59155e-17
3.14267e-15
9.45978e-11
1.07541e-16
-2.66457e-15
7.68242e-11
-5.86311e-18
3.68018e-16
6.18444e-11
4.29154e-17
-3.8068e-16
4.94311e-11
4.55087e-17
-4.65191e-17
3.92855e-11
6.81012e-17
-5.96589e-18
3.10814e-11
1.68903e-16
1.45926e-15
8.61576e-11
1.47372e-16
3.33284e-15
1.00737e-10
9.61476e-16
1.34343e-15
7.97008e-11
5.90334e-17
3.16287e-15
1.16814e-10
1.49183e-15
1.30046e-14
9.28384e-11
-7.27597e-16
-6.12876e-15
7.34509e-11
-4.54807e-19
4.15346e-15
1.3422e-10
1.54084e-15
5.72329e-15
1.0728e-10
-7.02507e-16
-3.18158e-15
8.52612e-11
6.82702e-16
1.14857e-15
6.74562e-11
-6.86021e-17
3.71585e-15
1.52643e-10
2.55151e-15
2.22479e-14
1.2288e-10
-1.22152e-15
-1.67353e-14
9.82159e-11
1.02528e-15
9.00711e-15
7.80576e-11
-5.75368e-16
-4.29706e-15
6.17567e-11
-9.47909e-17
3.85988e-15
1.71569e-10
2.11753e-15
1.10649e-14
1.39335e-10
-8.12554e-16
-7.33214e-15
1.12166e-10
9.43919e-16
4.6342e-15
8.96525e-11
-5.0633e-16
-2.69005e-15
7.12514e-11
2.11579e-16
4.73408e-16
5.63719e-11
-1.42089e-16
3.13772e-15
1.90249e-10
3.4209e-15
2.28936e-14
1.56194e-10
-1.67277e-15
-1.98506e-14
1.26847e-10
1.5529e-15
1.48717e-14
1.02114e-10
-8.20342e-16
-1.14792e-14
8.16176e-11
3.01054e-16
3.00879e-15
6.48659e-11
-2.60895e-16
-1.48135e-15
5.13198e-11
-1.16667e-16
2.67276e-15
2.07698e-10
2.4251e-15
1.4571e-14
1.72788e-10
-7.42994e-16
-1.12691e-14
1.41857e-10
1.05705e-15
8.5784e-15
1.15205e-10
-3.92704e-16
-6.03209e-15
9.2741e-11
2.20082e-16
1.76656e-15
7.41262e-11
-2.1354e-16
-1.14764e-15
5.8912e-11
5.84861e-17
7.68308e-17
4.66093e-11
-7.31374e-17
2.09479e-15
2.22687e-10
3.27228e-15
1.80538e-14
1.88218e-10
-1.57206e-15
-1.67796e-14
1.56579e-10
1.71826e-15
1.49303e-14
1.28551e-10
-8.45206e-16
-1.30624e-14
1.04398e-10
3.73778e-16
4.71958e-15
8.40418e-11
-2.929e-16
-3.87853e-15
6.7173e-11
6.84397e-17
4.54974e-16
5.33859e-11
3.24373e-17
-2.69686e-16
4.22373e-11
4.00708e-19
1.61451e-15
2.33861e-10
2.18245e-15
1.3824e-14
2.01399e-10
-5.65689e-16
-1.2183e-14
1.70222e-10
8.45998e-16
1.07466e-14
1.4161e-10
-9.49e-17
-8.63936e-15
1.16261e-10
1.36825e-16
3.14685e-15
9.44173e-11
-9.69288e-17
-2.52476e-15
7.6007e-11
4.18724e-17
2.98188e-16
6.0751e-11
4.24269e-17
-2.78386e-16
4.8282e-11
1.10021e-16
-2.51001e-17
3.81992e-11
5.97709e-17
1.16936e-15
2.39884e-10
1.95889e-15
1.243e-14
2.11124e-10
-8.04532e-16
-1.18968e-14
1.81815e-10
1.02431e-15
1.15352e-14
1.53672e-10
-4.26255e-16
-1.05957e-14
1.27841e-10
2.47478e-16
4.47378e-15
1.04957e-10
-1.70504e-16
-4.1933e-15
8.52366e-11
4.94279e-17
6.45925e-16
6.86165e-11
2.72933e-17
-6.74182e-16
5.48439e-11
8.80477e-17
-7.22326e-17
4.35873e-11
1.45811e-16
-1.49971e-18
3.44849e-11
6.70032e-17
8.0956e-16
2.3969e-10
9.98303e-16
9.97782e-15
2.1621e-10
-2.82322e-16
-9.67513e-15
1.90285e-10
3.22376e-16
9.45584e-15
1.63872e-10
1.1394e-16
-8.51238e-15
1.38504e-10
-3.09165e-17
3.55964e-15
1.15223e-10
9.26433e-17
-3.24421e-15
9.45976e-11
-3.45037e-18
4.77306e-16
7.68241e-11
5.0602e-17
-5.4995e-16
6.18443e-11
5.65141e-17
-7.65905e-17
4.9431e-11
8.57479e-17
-1.22147e-17
3.92854e-11
1.29457e-16
-1.38675e-17
3.10813e-11
2.06515e-16
2.10376e-15
9.27609e-11
1.99192e-16
2.75206e-15
1.08899e-10
9.87621e-16
7.18327e-15
8.61579e-11
1.52656e-16
5.14817e-15
1.26753e-10
1.14628e-15
3.37975e-15
1.00738e-10
-6.01228e-16
-1.36112e-15
7.97007e-11
1.82118e-17
3.8407e-15
1.46148e-10
1.96434e-15
2.09223e-14
1.16814e-10
-9.86034e-16
-1.31937e-14
9.28383e-11
7.23157e-16
5.11204e-15
7.34509e-11
-5.36635e-17
4.90698e-15
1.6673e-10
1.86891e-15
8.48987e-15
1.34221e-10
-7.94803e-16
-5.3996e-15
1.0728e-10
8.00442e-16
2.90903e-15
8.52613e-11
-5.15028e-16
-1.14676e-15
6.74561e-11
-1.23767e-16
3.86972e-15
1.87957e-10
3.28042e-15
2.67873e-14
1.52644e-10
-1.57992e-15
-2.16417e-14
1.2288e-10
1.34513e-15
1.44744e-14
9.82161e-11
-7.86484e-16
-9.26086e-15
7.80574e-11
2.56631e-16
1.80185e-15
6.17566e-11
-1.39601e-16
3.97123e-15
2.08977e-10
2.59361e-15
1.38965e-14
1.7157e-10
-9.12127e-16
-9.89698e-15
1.39334e-10
1.1279e-15
6.8998e-15
1.12166e-10
-5.80655e-16
-4.55357e-15
8.96522e-11
2.43394e-16
1.18469e-15
7.12514e-11
-2.58083e-16
-4.75194e-16
5.63719e-11
-1.6579e-16
3.05343e-15
2.28689e-10
4.16386e-15
2.39539e-14
1.9025e-10
-2.07502e-15
-2.17321e-14
1.56193e-10
1.98976e-15
1.78386e-14
1.26848e-10
-1.0733e-15
-1.47995e-14
1.02114e-10
3.9683e-16
4.8041e-15
8.16176e-11
-3.52413e-16
-3.18913e-15
6.48658e-11
7.59288e-17
2.82885e-16
5.13198e-11
-1.21574e-16
2.53233e-15
2.45737e-10
3.06101e-15
1.6079e-14
2.077e-10
-9.51242e-16
-1.32044e-14
1.72787e-10
1.30038e-15
1.07096e-14
1.41858e-10
-4.42441e-16
-8.06856e-15
1.15204e-10
2.55947e-16
2.62811e-15
9.2741e-11
-2.5081e-16
-1.9352e-15
7.41261e-11
6.96875e-17
1.86396e-16
5.89119e-11
4.92861e-17
-1.23205e-16
4.66093e-11
-4.84779e-17
1.90678e-15
2.58582e-10
3.78732e-15
1.74636e-14
2.22689e-10
-1.81639e-15
-1.67209e-14
1.88216e-10
2.06838e-15
1.5614e-14
1.5658e-10
-1.0515e-15
-1.42911e-14
1.28551e-10
4.77865e-16
5.62592e-15
1.04398e-10
-3.83188e-16
-4.98846e-15
8.40416e-11
8.92809e-17
7.16641e-16
6.7173e-11
3.6608e-17
-5.87024e-16
5.33859e-11
1.52553e-16
-4.61667e-17
4.22372e-11
4.23703e-17
1.38462e-15
2.65721e-10
2.75995e-15
1.35405e-14
2.33863e-10
-8.77234e-16
-1.25546e-14
2.01397e-10
1.14999e-15
1.16421e-14
1.70223e-10
-1.9765e-16
-9.93751e-15
1.4161e-10
1.778e-16
3.86812e-15
1.16261e-10
-1.16517e-16
-3.32036e-15
9.44171e-11
5.02599e-17
4.3592e-16
7.60069e-11
5.54782e-17
-4.65182e-16
6.07509e-11
1.38102e-16
-6.18107e-17
4.82819e-11
2.30113e-16
-1.12006e-17
3.81991e-11
1.07512e-16
9.46108e-16
2.65937e-10
2.29978e-15
1.14207e-14
2.39886e-10
-9.77229e-16
-1.13112e-14
2.11122e-10
1.21606e-15
1.13171e-14
1.81816e-10
-5.14066e-16
-1.0742e-14
1.53671e-10
3.00031e-16
4.71896e-15
1.27841e-10
-2.18825e-16
-4.63516e-15
1.04956e-10
6.37462e-17
7.64445e-16
8.52366e-11
3.06881e-17
-8.76116e-16
6.86165e-11
1.0904e-16
-1.17246e-16
5.48438e-11
1.83931e-16
-4.52926e-18
4.35872e-11
2.62546e-16
-4.10531e-17
3.44847e-11
1.00694e-16
6.05628e-16
2.58546e-10
1.2377e-15
8.88379e-15
2.39692e-10
-4.79013e-16
-9.0417e-15
2.16209e-10
5.3132e-16
9.23472e-15
1.90287e-10
-3.38937e-17
-8.74734e-15
1.63871e-10
2.74522e-17
3.83295e-15
1.38505e-10
5.90683e-17
-3.68198e-15
1.15223e-10
2.98673e-18
5.78596e-16
9.45976e-11
5.80008e-17
-7.08042e-16
7.6824e-11
6.95182e-17
-1.06656e-16
6.18442e-11
1.07488e-16
-1.84581e-17
4.94309e-11
1.63988e-16
-4.00664e-17
3.92852e-11
2.12523e-16
1.73732e-17
3.1081e-11
2.36726e-16
1.7087e-15
9.94343e-11
2.61467e-16
3.8943e-15
1.17245e-10
7.67139e-16
1.03883e-15
9.27612e-11
2.29937e-16
4.3687e-15
1.37022e-10
1.34292e-15
1.55438e-14
1.08899e-10
-6.59571e-16
-7.48964e-15
8.61578e-11
1.51138e-16
6.03795e-15
1.58584e-10
1.38728e-15
5.72936e-15
1.26754e-10
-6.64814e-16
-3.38883e-15
1.00738e-10
5.8462e-16
1.1933e-15
7.97007e-11
-3.12424e-17
4.70076e-15
1.81547e-10
2.56917e-15
2.71532e-14
1.46149e-10
-1.29128e-15
-2.12304e-14
1.16814e-10
9.81037e-16
1.10693e-14
9.28384e-11
-5.90216e-16
-5.28971e-15
7.34508e-11
-1.09506e-16
4.94757e-15
2.05304e-10
2.24811e-15
1.14333e-14
1.66731e-10
-8.8313e-16
-8.05394e-15
1.3422e-10
9.51831e-16
4.91802e-15
1.0728e-10
-5.82265e-16
-2.91512e-15
8.52611e-11
2.29661e-16
5.3232e-16
6.7456e-11
-1.76529e-16
4.15066e-15
2.28939e-10
4.11303e-15
2.94195e-14
1.87959e-10
-2.02681e-15
-2.60579e-14
1.52644e-10
1.75125e-15
1.87991e-14
1.2288e-10
-1.03957e-15
-1.48858e-14
9.82159e-11
3.49985e-16
3.86581e-15
7.80574e-11
-3.01039e-16
-1.84385e-15
6.17565e-11
-1.78211e-16
3.74507e-15
2.51202e-10
3.19289e-15
1.63975e-14
2.08979e-10
-1.06995e-15
-1.26136e-14
1.7157e-10
1.34234e-15
9.25264e-15
1.39335e-10
-6.60102e-16
-6.78439e-15
1.12166e-10
2.85284e-16
1.98849e-15
8.96522e-11
-3.00332e-16
-1.23126e-15
7.12513e-11
7.8844e-17
6.77782e-17
5.63718e-11
-1.82318e-16
2.94274e-15
2.70572e-10
4.91978e-15
2.38537e-14
2.28691e-10
-2.50155e-15
-2.2679e-14
1.90249e-10
2.47891e-15
1.96003e-14
1.56194e-10
-1.38635e-15
-1.77263e-14
1.26847e-10
5.17522e-16
6.20333e-15
1.02114e-10
-4.62392e-16
-5.10548e-15
8.16175e-11
1.00729e-16
5.86884e-16
6.48657e-11
5.74551e-17
-3.61669e-16
5.13197e-11
-1.09432e-16
2.29354e-15
2.85348e-10
3.82309e-15
1.68024e-14
2.45739e-10
-1.28459e-15
-1.46733e-14
2.07699e-10
1.62742e-15
1.24784e-14
1.72788e-10
-5.41513e-16
-1.01314e-14
1.41857e-10
2.99317e-16
3.50669e-15
1.15204e-10
-2.9507e-16
-2.86644e-15
9.27409e-11
8.41395e-17
3.1025e-16
7.41261e-11
6.67187e-17
-3.19562e-16
5.89119e-11
2.01398e-16
-3.18587e-17
4.66092e-11
-1.10892e-17
1.65075e-15
2.9381e-10
4.32501e-15
1.63781e-14
2.58584e-10
-2.06841e-15
-1.61182e-14
2.22687e-10
2.4146e-15
1.56037e-14
1.88218e-10
-1.26492e-15
-1.49156e-14
1.56579e-10
5.89607e-16
6.17218e-15
1.28551e-10
-4.93348e-16
-5.94902e-15
1.04398e-10
1.14856e-16
9.10009e-16
8.40416e-11
4.2184e-17
-9.36774e-16
6.71729e-11
1.90375e-16
-1.03027e-16
5.33858e-11
3.24486e-16
-2.19683e-18
4.22371e-11
9.73179e-17
1.12583e-15
2.9458e-10
3.35774e-15
1.26504e-14
2.65723e-10
-1.25314e-15
-1.2311e-14
2.33861e-10
1.52845e-15
1.19502e-14
2.01399e-10
-3.87539e-16
-1.08216e-14
1.70222e-10
2.44798e-16
4.43138e-15
1.4161e-10
-1.58212e-16
-4.07409e-15
1.16261e-10
6.09988e-17
5.74721e-16
9.4417e-11
7.07388e-17
-6.7735e-16
7.60068e-11
1.71947e-16
-1.02088e-16
6.07508e-11
2.89367e-16
-2.2349e-17
4.82818e-11
4.14155e-16
-1.33026e-17
3.81989e-11
1.60865e-16
7.04824e-16
2.86857e-10
2.65058e-15
1.0069e-14
2.65939e-10
-1.18621e-15
-1.03729e-14
2.39884e-10
1.43863e-15
1.07467e-14
2.11123e-10
-6.26382e-16
-1.05471e-14
1.81815e-10
3.53937e-16
4.78116e-15
1.53671e-10
-2.72107e-16
-4.89919e-15
1.2784e-10
7.91868e-17
8.37434e-16
1.04956e-10
3.42312e-17
-1.05235e-15
8.52365e-11
1.34287e-16
-1.53756e-16
6.86164e-11
2.30656e-16
-5.50959e-18
5.48437e-11
3.31187e-16
-8.97468e-17
4.3587e-11
4.57072e-16
4.6279e-17
3.44845e-11
1.25472e-16
3.88077e-16
2.7084e-10
1.43852e-15
7.47699e-15
2.58548e-10
-6.60236e-16
-8.03461e-15
2.39691e-10
7.38491e-16
8.60056e-15
2.1621e-10
-2.03165e-16
-8.5782e-15
1.90285e-10
9.9345e-17
3.91636e-15
1.63871e-10
3.31684e-19
-3.97629e-15
1.38504e-10
1.34387e-17
6.54035e-16
1.15223e-10
6.25409e-17
-8.57614e-16
9.45974e-11
8.48807e-17
-1.35201e-16
7.68239e-11
1.34059e-16
-2.1957e-17
6.18441e-11
2.06354e-16
-6.76104e-17
4.94307e-11
2.68441e-16
4.39117e-17
3.92849e-11
3.61514e-16
-5.91718e-18
3.10807e-11
2.49734e-16
2.11002e-15
1.0609e-10
3.06469e-16
3.20767e-15
1.2568e-10
7.54816e-16
8.40851e-15
9.94346e-11
3.28231e-16
6.03302e-15
1.47524e-10
8.85737e-16
2.79268e-15
1.17246e-10
-4.94481e-16
-1.34226e-15
9.27611e-11
2.6294e-16
5.24497e-15
1.71432e-10
1.78095e-15
2.50611e-14
1.37023e-10
-9.11986e-16
-1.6126e-14
1.08899e-10
6.17374e-16
6.20921e-15
8.61579e-11
1.48618e-16
7.11058e-15
1.96995e-10
1.65974e-15
8.49382e-15
1.58584e-10
-7.43231e-16
-5.74412e-15
1.26753e-10
6.68404e-16
2.98985e-15
1.00738e-10
-4.48289e-16
-1.1494e-15
7.97006e-11
-7.73994e-17
4.88832e-15
2.23549e-10
3.31912e-15
3.28509e-14
1.81549e-10
-1.6837e-15
-2.75553e-14
1.46148e-10
1.29455e-15
1.78371e-14
1.16814e-10
-8.13954e-16
-1.14582e-14
9.28382e-11
2.56983e-16
2.2146e-15
7.34507e-11
-1.62407e-16
5.15123e-15
2.50067e-10
2.71684e-15
1.45442e-14
2.05305e-10
-9.7313e-16
-1.08945e-14
1.66731e-10
1.12029e-15
7.31848e-15
1.34221e-10
-6.69648e-16
-4.93815e-15
1.0728e-10
2.63789e-16
1.31055e-15
8.52611e-11
-2.58668e-16
-5.02172e-16
6.74559e-11
-2.21283e-16
4.02061e-15
2.75196e-10
5.02058e-15
3.08872e-14
2.28941e-10
-2.53603e-15
-2.86265e-14
1.87958e-10
2.25298e-15
2.26971e-14
1.52644e-10
-1.36312e-15
-1.92939e-14
1.2288e-10
4.63044e-16
6.20041e-15
9.82159e-11
-4.05704e-16
-3.99465e-15
7.80573e-11
9.46322e-17
3.50242e-16
6.17565e-11
-2.11131e-16
3.57202e-15
2.97208e-10
3.95986e-15
1.84017e-14
2.51204e-10
-1.31733e-15
-1.50242e-14
2.08978e-10
1.62398e-15
1.17136e-14
1.7157e-10
-7.4931e-16
-9.1097e-15
1.39334e-10
3.32378e-16
2.94533e-15
1.12166e-10
-3.54566e-16
-2.08142e-15
8.96521e-11
9.42267e-17
1.69104e-16
7.12512e-11
8.39446e-17
-1.48561e-16
5.63718e-11
-1.81807e-16
2.68433e-15
3.14186e-10
5.67913e-15
2.29658e-14
2.70574e-10
-2.91311e-15
-2.25245e-14
2.28689e-10
3.00258e-15
2.05228e-14
1.9025e-10
-1.73385e-15
-1.94339e-14
1.56193e-10
6.66235e-16
7.43899e-15
1.26847e-10
-6.002e-16
-6.60247e-15
1.02113e-10
1.30751e-16
9.28884e-16
8.16174e-11
6.7226e-17
-7.87504e-16
6.48656e-11
2.54572e-16
-5.45876e-17
5.13197e-11
-8.5749e-17
1.98602e-15
3.24223e-10
4.68143e-15
1.67124e-14
2.8535e-10
-1.73097e-15
-1.53877e-14
2.45738e-10
2.0699e-15
1.37937e-14
2.077e-10
-7.11929e-16
-1.18538e-14
1.72787e-10
3.66268e-16
4.397e-15
1.41857e-10
-3.48439e-16
-3.80761e-15
1.15204e-10
1.01465e-16
4.61291e-16
9.27408e-11
8.74509e-17
-5.3518e-16
7.4126e-11
2.52612e-16
-7.70275e-17
5.89118e-11
4.27235e-16
-1.37231e-17
4.66091e-11
3.9844e-17
1.34879e-15
3.2572e-10
4.88928e-15
1.48817e-14
2.93813e-10
-2.3399e-15
-1.50669e-14
2.58582e-10
2.76858e-15
1.50723e-14
2.22689e-10
-1.46714e-15
-1.48756e-14
1.88216e-10
7.05702e-16
6.45358e-15
1.5658e-10
-6.1278e-16
-6.52987e-15
1.28551e-10
1.45669e-16
1.0757e-15
1.04398e-10
4.85652e-17
-1.22029e-15
8.40415e-11
2.36093e-16
-1.67062e-16
6.71728e-11
4.08838e-16
-4.86367e-18
5.33857e-11
5.78839e-16
-5.65592e-17
4.22369e-11
1.5656e-16
8.38218e-16
3.17753e-10
3.92974e-15
1.12572e-14
2.94582e-10
-1.65806e-15
-1.15e-14
2.65721e-10
1.96009e-15
1.16801e-14
2.33863e-10
-6.52196e-16
-1.11553e-14
2.01397e-10
3.47601e-16
4.80566e-15
1.70223e-10
-2.28561e-16
-4.66308e-15
1.4161e-10
7.70824e-17
7.05673e-16
1.16261e-10
8.82152e-17
-8.82981e-16
9.44169e-11
2.12726e-16
-1.40755e-16
7.60067e-11
3.62029e-16
-3.35113e-17
6.07507e-11
5.24944e-16
-4.3259e-17
4.82816e-11
7.23184e-16
1.92245e-17
3.81987e-11
2.04159e-16
4.51993e-16
3.00498e-10
2.97391e-15
8.43526e-15
2.8686e-10
-1.42001e-15
-9.11832e-15
2.65937e-10
1.68836e-15
9.83701e-15
2.39886e-10
-7.73028e-16
-1.00351e-14
2.11122e-10
4.16686e-16
4.68397e-15
1.81815e-10
-3.29398e-16
-4.97706e-15
1.53671e-10
9.58725e-17
8.77545e-16
1.2784e-10
3.96204e-17
-1.17717e-15
1.04956e-10
1.64473e-16
-1.8734e-16
8.52364e-11
2.87505e-16
-7.88382e-18
6.86162e-11
4.1632e-16
-1.43999e-16
5.48435e-11
5.78809e-16
9.65575e-17
4.35867e-11
7.53887e-16
-2.1192e-17
3.44841e-11
1.41977e-16
1.67191e-16
2.75112e-10
1.59236e-15
5.87274e-15
2.70843e-10
-8.121e-16
-6.7254e-15
2.58546e-10
9.2763e-16
7.61504e-15
2.39692e-10
-3.74838e-16
-8.02245e-15
2.16209e-10
1.79202e-16
3.81662e-15
1.90286e-10
-7.37403e-17
-4.07683e-15
1.63871e-10
2.88837e-17
7.01739e-16
1.38504e-10
6.41485e-17
-9.6896e-16
1.15223e-10
1.02494e-16
-1.59735e-16
9.45973e-11
1.66103e-16
-2.37604e-17
7.68237e-11
2.57611e-16
-1.02678e-16
6.18438e-11
3.38021e-16
7.25517e-17
4.94303e-11
4.56648e-16
-1.79496e-17
3.92844e-11
5.66418e-16
-8.41109e-17
3.10802e-11
2.49057e-16
1.4826e-15
1.12627e-10
3.28165e-16
3.91329e-15
1.34092e-10
5.47318e-16
1.20412e-15
1.0609e-10
3.97163e-16
5.0854e-15
1.58137e-10
1.04679e-15
1.8206e-14
1.25681e-10
-5.19944e-16
-8.72799e-15
9.94345e-11
4.09046e-16
7.06839e-15
1.8457e-10
1.04073e-15
4.83922e-15
1.47525e-10
-5.26763e-16
-3.34467e-15
1.17245e-10
4.52386e-16
1.20281e-15
9.27612e-11
3.01545e-16
6.38329e-15
2.12955e-10
2.34843e-15
3.26445e-14
1.71433e-10
-1.21259e-15
-2.59725e-14
1.37023e-10
8.53244e-16
1.3496e-14
1.08899e-10
-4.5286e-16
-6.28064e-15
8.61577e-11
1.49673e-16
7.07591e-15
2.4257e-10
1.96409e-15
1.14733e-14
1.96996e-10
-8.08197e-16
-8.52587e-15
1.58584e-10
7.77308e-16
5.05372e-15
1.26754e-10
-4.92482e-16
-2.90556e-15
1.00738e-10
2.08768e-16
5.62887e-16
7.97005e-11
-1.15902e-16
5.31567e-15
2.7229e-10
4.18609e-15
3.62401e-14
2.2355e-10
-2.17776e-15
-3.334e-14
1.81548e-10
1.69843e-15
2.32683e-14
1.46149e-10
-1.08342e-15
-1.84741e-14
1.16814e-10
3.53956e-16
4.77792e-15
9.28382e-11
-2.71128e-16
-2.25432e-15
7.34507e-11
-2.07727e-16
4.84692e-15
3.00594e-10
3.30283e-15
1.74306e-14
2.50069e-10
-1.10977e-15
-1.39446e-14
2.05304e-10
1.30918e-15
9.85206e-15
1.66731e-10
-7.57727e-16
-7.34538e-15
1.3422e-10
3.08565e-16
2.19818e-15
1.0728e-10
-2.96955e-16
-1.2851e-15
8.5261e-11
9.86911e-17
7.20379e-17
6.74559e-11
-2.61076e-16
3.93483e-15
3.25597e-10
5.94065e-15
3.07379e-14
2.75199e-10
-3.08451e-15
-3.0023e-14
2.28939e-10
2.8252e-15
2.50464e-14
1.87959e-10
-1.76605e-15
-2.32642e-14
1.52643e-10
6.07643e-16
8.04413e-15
1.2288e-10
-5.31569e-16
-6.42612e-15
9.82157e-11
1.24234e-16
7.35019e-16
7.80572e-11
1.01623e-16
-4.8283e-16
6.17564e-11
-2.31917e-16
3.21054e-15
3.45115e-10
4.8765e-15
1.95968e-14
2.9721e-10
-1.70865e-15
-1.70229e-14
2.51202e-10
1.99584e-15
1.38734e-14
2.08979e-10
-8.87901e-16
-1.15444e-14
1.71569e-10
3.86711e-16
3.93917e-15
1.39334e-10
-4.15768e-16
-3.09855e-15
1.12166e-10
1.1364e-16
2.8613e-16
8.9652e-11
1.11105e-16
-3.75103e-16
7.12512e-11
3.15838e-16
-2.33394e-17
5.63717e-11
-1.72591e-16
2.3523e-15
3.56989e-10
6.42823e-15
2.14141e-14
3.14189e-10
-3.31166e-15
-2.16052e-14
2.70572e-10
3.522e-15
2.04522e-14
2.28691e-10
-2.10086e-15
-2.03019e-14
1.90249e-10
8.32337e-16
8.17592e-15
1.56194e-10
-7.68972e-16
-7.92027e-15
1.26847e-10
1.68057e-16
1.18483e-15
1.02113e-10
7.9733e-17
-1.26079e-15
8.16173e-11
3.18342e-16
-1.24609e-16
6.48655e-11
5.41217e-16
-6.81223e-19
5.13195e-11
-4.54706e-17
1.62644e-15
3.59435e-10
5.56502e-15
1.58106e-14
3.24225e-10
-2.27302e-15
-1.53359e-14
2.85348e-10
2.6116e-15
1.44117e-14
2.45739e-10
-9.92216e-16
-1.31562e-14
2.07699e-10
4.65102e-16
5.13709e-15
1.72787e-10
-4.27398e-16
-4.74964e-15
1.41857e-10
1.22198e-16
6.18522e-16
1.15204e-10
1.12846e-16
-7.85844e-16
9.27407e-11
3.14513e-16
-1.26644e-16
7.41259e-11
5.37386e-16
-2.8215e-17
5.89116e-11
7.64354e-16
-1.54768e-17
4.66089e-11
9.59141e-17
1.00456e-15
3.51343e-10
5.45325e-15
1.30316e-14
3.25723e-10
-2.65141e-15
-1.36435e-14
2.93811e-10
3.13451e-15
1.41024e-14
2.58584e-10
-1.67755e-15
-1.43504e-14
2.22687e-10
8.17233e-16
6.44865e-15
1.88217e-10
-7.38627e-16
-6.83056e-15
1.56579e-10
1.79479e-16
1.16707e-15
1.2855e-10
5.57922e-17
-1.46658e-15
1.04398e-10
2.91241e-16
-2.18191e-16
8.40414e-11
5.12165e-16
-4.76192e-18
6.71726e-11
7.31088e-16
-1.24995e-16
5.33854e-11
1.0193e-15
6.30454e-17
4.22366e-11
2.0605e-16
5.35153e-16
3.32863e-10
4.42826e-15
9.48455e-15
3.17756e-10
-2.05774e-15
-1.02128e-14
2.9458e-10
2.4073e-15
1.08752e-14
2.65723e-10
-9.76418e-16
-1.09441e-14
2.33861e-10
4.79723e-16
4.9322e-15
2.01398e-10
-3.38669e-16
-5.05669e-15
1.70222e-10
9.95914e-17
8.07919e-16
1.4161e-10
1.04953e-16
-1.07735e-15
1.1626e-10
2.61641e-16
-1.78235e-16
9.44168e-11
4.50479e-16
-3.96841e-17
7.60065e-11
6.62012e-16
-7.62565e-17
6.07504e-11
9.1333e-16
5.12223e-17
4.82812e-11
1.19033e-15
-3.34949e-18
3.81982e-11
2.30724e-16
1.92746e-16
3.05238e-10
3.2338e-15
6.61168e-15
3.00501e-10
-1.64996e-15
-7.60221e-15
2.86858e-10
1.94868e-15
8.62324e-15
2.65939e-10
-9.54306e-16
-9.20985e-15
2.39884e-10
4.91326e-16
4.43864e-15
2.11123e-10
-3.9877e-16
-4.89135e-15
1.81815e-10
1.13253e-16
8.82459e-16
1.53671e-10
4.64486e-17
-1.25424e-15
1.2784e-10
2.00387e-16
-2.10096e-16
1.04956e-10
3.55953e-16
-8.8471e-18
8.52362e-11
5.20597e-16
-1.86339e-16
6.86159e-11
7.29372e-16
1.53116e-16
5.48431e-11
9.51362e-16
-4.55582e-17
4.35862e-11
1.20135e-15
-7.85147e-17
3.44836e-11
1.44902e-16
-5.11271e-17
2.7084e-10
1.68447e-15
4.18137e-15
2.75114e-10
-9.39601e-16
-5.2413e-15
2.70841e-10
1.08403e-15
6.35056e-15
2.58548e-10
-5.34285e-16