/*--------------------------------*- C++ -*----------------------------------*\
  =========                 |
  \\      /  F ield         | OpenFOAM: The Open Source CFD Toolbox
   \\    /   O peration     | Website:  https://openfoam.org
    \\  /    A nd           | Version:  7
     \\/     M anipulation  |
\*---------------------------------------------------------------------------*/
FoamFile
{
    version     2.0;
    format      ascii;
    class       volVectorField;
    location    "409";
    object      U;
}
// * * * * * * * * * * * * * * * * * * * * * * * * * * * * * * * * * * * * * //

dimensions      [0 1 -1 0 0 0 0];

internalField   nonuniform List<vector> 
43305
(
(0.625001 1.31963e-09 5.86033e-09)
(0.625001 1.45696e-09 5.48682e-09)
(0.625001 9.75497e-10 1.77258e-08)
(0.625006 -9.15226e-08 1.73177e-08)
(0.625001 4.88666e-09 6.68682e-09)
(0.625001 3.5976e-10 1.67442e-08)
(0.625006 4.37845e-08 3.724e-08)
(0.625 5.24122e-10 2.90737e-08)
(0.625006 -8.56732e-08 5.94911e-08)
(0.625005 1.03284e-07 -1.52071e-08)
(0.625001 6.73996e-09 5.95075e-09)
(0.625001 3.11195e-09 2.01506e-08)
(0.625006 6.65423e-08 1.60313e-08)
(0.625 -9.09559e-10 2.79363e-08)
(0.625006 4.5783e-08 1.16709e-07)
(0.625005 -1.70772e-08 -3.57242e-08)
(0.625 4.66818e-11 3.90505e-08)
(0.625006 -7.68205e-08 1.14104e-07)
(0.625005 9.77598e-08 -5.2694e-08)
(0.625005 -8.94035e-08 1.63584e-08)
(0.625001 9.68951e-09 7.79229e-09)
(0.625001 4.07672e-09 1.81261e-08)
(0.625006 1.7161e-07 4.16108e-08)
(0.625 9.8099e-10 3.28885e-08)
(0.625006 6.87474e-08 5.62528e-08)
(0.625005 -1.60096e-08 -1.38237e-08)
(0.625 -1.97204e-09 3.82489e-08)
(0.625006 4.84008e-08 2.0264e-07)
(0.625005 -1.73651e-08 -1.1159e-07)
(0.625005 3.60875e-08 3.53471e-08)
(0.625 -3.1939e-10 4.58497e-08)
(0.625006 -6.41459e-08 1.73685e-07)
(0.625005 8.92625e-08 -1.02109e-07)
(0.625005 -8.3943e-08 5.61602e-08)
(0.625006 1.05625e-07 -1.53237e-08)
(0.625001 1.1356e-08 6.76052e-09)
(0.625001 6.15925e-09 2.33971e-08)
(0.625006 1.92665e-07 1.45495e-08)
(0.625 8.82595e-10 3.0276e-08)
(0.625006 1.73931e-07 1.3114e-07)
(0.625005 -1.0559e-07 -4.07106e-08)
(0.625 -9.48766e-10 4.39644e-08)
(0.625006 7.18471e-08 1.11065e-07)
(0.625005 -1.52984e-08 -4.91998e-08)
(0.625005 5.15035e-08 1.50177e-08)
(0.625 -2.60005e-09 4.57704e-08)
(0.625006 5.1438e-08 2.83195e-07)
(0.625005 -1.7889e-08 -1.93215e-07)
(0.625005 3.73924e-08 1.10695e-07)
(0.625006 -8.53998e-09 -3.56735e-08)
(0.625 -5.40186e-10 5.01689e-08)
(0.625006 -4.97453e-08 2.35582e-07)
(0.625005 7.68123e-08 -1.57017e-07)
(0.625005 -7.56519e-08 1.07696e-07)
(0.625006 9.99249e-08 -5.29942e-08)
(0.625004 -4.38183e-08 7.88251e-09)
(0.625001 1.5864e-08 9.40657e-09)
(0.625001 6.7356e-09 2.052e-08)
(0.625006 2.76436e-07 4.44198e-08)
(0.625 1.88925e-09 3.80827e-08)
(0.625006 1.95373e-07 5.09615e-08)
(0.625005 -1.07679e-07 -1.25905e-08)
(0.625 -2.01473e-09 4.15305e-08)
(0.625006 1.76835e-07 2.2957e-07)
(0.625005 -1.03686e-07 -1.27996e-07)
(0.625005 1.44853e-07 3.93508e-08)
(0.625 -2.33029e-09 5.141e-08)
(0.625006 7.56672e-08 1.71717e-07)
(0.625005 -1.48901e-08 -9.87583e-08)
(0.625005 5.25715e-08 5.26988e-08)
(0.625006 -1.77694e-09 -1.3977e-08)
(0.625 -2.65825e-09 5.07711e-08)
(0.625006 5.43149e-08 3.45285e-07)
(0.625005 -1.8908e-08 -2.69741e-07)
(0.625005 3.91359e-08 1.92123e-07)
(0.625006 -9.3774e-09 -1.11432e-07)
(0.625004 1.56273e-08 1.71374e-08)
(0.625 -5.5786e-10 5.11618e-08)
(0.625006 -3.3762e-08 2.93306e-07)
(0.625005 6.24682e-08 -2.15542e-07)
(0.625005 -6.3711e-08 1.64228e-07)
(0.625006 9.12268e-08 -1.02473e-07)
(0.625004 -4.12603e-08 2.69726e-08)
(0.625004 5.22285e-08 -8.73766e-09)
(0.625001 1.96367e-08 7.42816e-09)
(0.625001 1.05445e-08 2.81348e-08)
(0.625006 2.8495e-07 1.31997e-08)
(0.625 1.15453e-09 3.42042e-08)
(0.625006 2.79898e-07 1.40465e-07)
(0.625005 -1.82336e-07 -4.40416e-08)
(0.625 -2.07666e-09 5.07798e-08)
(0.625006 1.98755e-07 1.00627e-07)
(0.625005 -1.05089e-07 -4.4726e-08)
(0.625005 1.56968e-07 1.33968e-08)
(0.625 -4.09514e-09 4.99711e-08)
(0.625006 1.79833e-07 3.22474e-07)
(0.625005 -1.01448e-07 -2.2365e-07)
(0.625005 1.45596e-07 1.23946e-07)
(0.625006 -8.57901e-08 -4.06225e-08)
(0.625 -2.88897e-09 5.60801e-08)
(0.625006 8.0258e-08 2.35252e-07)
(0.625005 -1.54503e-08 -1.54771e-07)
(0.625005 5.42371e-08 1.04126e-07)
(0.625006 -1.9969e-09 -4.96432e-08)
(0.625004 1.9196e-08 7.12263e-09)
(0.625 -2.24801e-09 5.23834e-08)
(0.625006 5.72739e-08 3.92439e-07)
(0.625005 -2.01745e-08 -3.28465e-07)
(0.625005 4.12723e-08 2.68711e-07)
(0.625006 -1.05847e-08 -1.92948e-07)
(0.625004 1.59262e-08 5.35268e-08)
(0.625004 -1.04684e-08 -1.92037e-08)
(0.625 -4.0934e-10 5.05392e-08)
(0.625006 -1.84805e-08 3.42023e-07)
(0.625005 4.6347e-08 -2.7097e-07)
(0.625005 -5.0098e-08 2.23393e-07)
(0.625006 7.86121e-08 -1.57363e-07)
(0.625004 -3.73521e-08 5.15692e-08)
(0.625004 4.9268e-08 -3.0141e-08)
(0.625003 -9.32891e-09 1.87945e-09)
(0.625001 2.2709e-08 1.00133e-08)
(0.625001 1.34307e-08 2.24713e-08)
(0.625006 3.45376e-07 4.65215e-08)
(0.625 4.05239e-09 4.55989e-08)
(0.625006 2.88318e-07 4.59452e-08)
(0.625005 -1.74269e-07 -1.15811e-08)
(0.625 -4.025e-09 4.68451e-08)
(0.625006 2.84217e-07 2.47351e-07)
(0.625005 -1.79387e-07 -1.39088e-07)
(0.625005 2.25429e-07 4.1358e-08)
(0.625 -5.05297e-09 5.92963e-08)
(0.625006 2.02217e-07 1.56609e-07)
(0.625005 -1.02016e-07 -8.97438e-08)
(0.625005 1.57711e-07 4.69688e-08)
(0.625006 -8.45527e-08 -1.29617e-08)
(0.625 -5.02419e-09 5.5864e-08)
(0.625006 1.82352e-07 3.94394e-07)
(0.625005 -9.95432e-08 -3.1386e-07)
(0.625005 1.46535e-07 2.16925e-07)
(0.625006 -8.51317e-08 -1.27811e-07)
(0.625004 5.94336e-08 1.89806e-08)
(0.625 -2.80141e-09 5.70098e-08)
(0.625006 8.60045e-08 2.96119e-07)
(0.625005 -1.76241e-08 -2.15051e-07)
(0.625005 5.6584e-08 1.61418e-07)
(0.625006 -2.74793e-09 -9.9423e-08)
(0.625004 1.92015e-08 2.49246e-08)
(0.625004 -1.30503e-08 -8.12843e-09)
(0.625 -1.43136e-09 5.23539e-08)
(0.625006 6.02613e-08 4.20936e-07)
(0.625005 -2.20525e-08 -3.73018e-07)
(0.625005 4.33553e-08 3.28068e-07)
(0.625006 -1.22783e-08 -2.69393e-07)
(0.625004 1.6342e-08 9.26149e-08)
(0.625004 -1.10737e-08 -6.02204e-08)
(0.625003 7.77554e-09 4.11861e-09)
(0.625 2.57723e-11 4.79493e-08)
(0.625006 -4.43932e-09 3.76177e-07)
(0.625005 3.08009e-08 -3.18487e-07)
(0.625005 -3.49348e-08 2.7872e-07)
(0.625006 6.41583e-08 -2.15752e-07)
(0.625004 -3.16695e-08 7.86764e-08)
(0.625004 4.47531e-08 -5.80776e-08)
(0.625003 -8.6718e-09 6.27458e-09)
(0.625003 1.82691e-08 -2.96723e-09)
(0.625001 2.48037e-08 7.89298e-09)
(0.625001 1.57533e-08 2.99119e-08)
(0.625006 3.31397e-07 1.11337e-08)
(0.625 5.81294e-09 3.73621e-08)
(0.625006 3.49375e-07 1.47454e-07)
(0.625005 -2.26847e-07 -4.70472e-08)
(0.625 -2.12515e-09 6.05386e-08)
(0.625006 2.92398e-07 9.03764e-08)
(0.625005 -1.70595e-07 -4.07551e-08)
(0.625005 2.21722e-07 1.18164e-08)
(0.625 -7.90464e-09 5.63773e-08)
(0.625006 2.88624e-07 3.49184e-07)
(0.625005 -1.75872e-07 -2.44754e-07)
(0.625005 2.26435e-07 1.30819e-07)
(0.625006 -1.57984e-07 -4.40891e-08)
(0.625 -6.65627e-09 6.45799e-08)
(0.625006 2.05496e-07 2.16919e-07)
(0.625005 -9.93139e-08 -1.4164e-07)
(0.625005 1.5862e-07 9.28958e-08)
(0.625006 -8.35407e-08 -4.59283e-08)
(0.625004 5.89923e-08 6.3558e-09)
(0.625 -5.0755e-09 5.81236e-08)
(0.625006 1.84196e-07 4.47384e-07)
(0.625005 -9.82441e-08 -3.8318e-07)
(0.625005 1.47564e-07 3.04954e-07)
(0.625006 -8.44648e-08 -2.23541e-07)
(0.625004 5.91093e-08 5.9624e-08)
(0.625004 -6.24837e-08 -2.17333e-08)
(0.625 -1.97612e-09 5.63153e-08)
(0.625006 9.29465e-08 3.4835e-07)
(0.625005 -2.20065e-08 -2.73808e-07)
(0.625005 5.98515e-08 2.21953e-07)
(0.625006 -4.45465e-09 -1.55572e-07)
(0.625004 1.936e-08 4.91525e-08)
(0.625004 -1.34883e-08 -2.86966e-08)
(0.625003 1.00247e-08 1.69872e-09)
(0.625 -2.8691e-10 4.99189e-08)
(0.625006 6.38163e-08 4.34147e-07)
(0.625005 -2.44425e-08 -3.99791e-07)
(0.625005 4.56424e-08 3.73317e-07)
(0.625006 -1.41162e-08 -3.28084e-07)
(0.625004 1.69273e-08 1.29405e-07)
(0.625004 -1.19245e-08 -1.0468e-07)
(0.625003 7.84213e-09 1.26892e-08)
(0.625003 9.35641e-09 -5.69432e-09)
(0.625 3.88207e-10 4.41234e-08)
(0.625006 6.79769e-09 3.94213e-07)
(0.625005 1.64139e-08 -3.52213e-07)
(0.625005 -2.04013e-08 3.25502e-07)
(0.625006 4.79864e-08 -2.7102e-07)
(0.625004 -2.51611e-08 1.07229e-07)
(0.625004 3.82195e-08 -8.88196e-08)
(0.625003 -7.68572e-09 1.16948e-08)
(0.625003 1.74028e-08 -1.0203e-08)
(0.625002 1.30242e-08 -6.77868e-10)
(0.625001 3.39175e-08 1.25817e-08)
(0.625001 1.70248e-08 2.38133e-08)
(0.625006 3.5717e-07 4.723e-08)
(0.625 7.22504e-09 4.8501e-08)
(0.625006 3.3459e-07 3.87709e-08)
(0.625005 -2.03306e-07 -1.09649e-08)
(0.625 -1.52924e-09 5.10632e-08)
(0.625006 3.54303e-07 2.60733e-07)
(0.625005 -2.2332e-07 -1.49009e-07)
(0.625005 2.63456e-07 4.26662e-08)
(0.625 -6.96415e-09 7.03856e-08)
(0.625006 2.96289e-07 1.40896e-07)
(0.625005 -1.66092e-07 -8.12082e-08)
(0.625005 2.22322e-07 4.12635e-08)
(0.625006 -1.52407e-07 -1.23313e-08)
(0.625 -1.00261e-08 6.3105e-08)
(0.625006 2.92275e-07 4.29119e-07)
(0.625005 -1.72763e-07 -3.45473e-07)
(0.625005 2.2771e-07 2.30576e-07)
(0.625006 -1.56875e-07 -1.39446e-07)
(0.625004 8.6248e-08 2.01386e-08)
(0.625 -7.16342e-09 6.55909e-08)
(0.625006 2.08813e-07 2.77075e-07)
(0.625005 -9.78082e-08 -1.99157e-07)
(0.625005 1.59547e-07 1.45141e-07)
(0.625006 -8.24486e-08 -9.188e-08)
(0.625004 5.86103e-08 2.21719e-08)
(0.625004 -6.75544e-08 -7.48213e-09)
(0.625 -4.19773e-09 5.86788e-08)
(0.625006 1.85398e-07 4.76012e-07)
(0.625005 -9.76428e-08 -4.3383e-07)
(0.625005 1.48396e-07 3.73414e-07)
(0.625006 -8.41543e-08 -3.13939e-07)
(0.625004 5.87204e-08 1.04026e-07)
(0.625004 -6.2564e-08 -6.85923e-08)
(0.625003 2.26156e-08 4.66982e-09)
(0.625 -8.12753e-10 5.32915e-08)
(0.625006 1.01193e-07 3.86009e-07)
(0.625005 -2.85195e-08 -3.25081e-07)
(0.625005 6.44462e-08 2.80159e-07)
(0.625006 -7.60459e-09 -2.15872e-07)
(0.625004 1.98325e-08 7.63686e-08)
(0.625004 -1.42728e-08 -5.70364e-08)
(0.625003 1.00522e-08 5.76448e-09)
(0.625003 1.73572e-08 -2.7694e-09)
(0.625 9.22727e-10 4.59037e-08)
(0.625006 6.78195e-08 4.32518e-07)
(0.625005 -2.77634e-08 -4.11873e-07)
(0.625005 4.80675e-08 4.00783e-07)
(0.625006 -1.64326e-08 -3.72659e-07)
(0.625004 1.75237e-08 1.5794e-07)
(0.625004 -1.30498e-08 -1.46534e-07)
(0.625003 7.93124e-09 2.16023e-08)
(0.625003 9.09832e-09 -1.80674e-08)
(0.625002 3.26707e-08 -1.04825e-09)
(0.625 9.35965e-10 3.86238e-08)
(0.625006 1.51924e-08 3.93918e-07)
(0.625005 4.92124e-09 -3.70561e-07)
(0.625005 -7.03478e-09 3.58147e-07)
(0.625006 3.24121e-08 -3.18381e-07)
(0.625004 -1.78879e-08 1.33975e-07)
(0.625004 3.07385e-08 -1.21162e-07)
(0.625003 -6.27701e-09 1.77e-08)
(0.625003 1.61101e-08 -1.95481e-08)
(0.625002 1.27922e-08 -2.32167e-09)
(0.625001 2.28218e-08 -2.45442e-10)
(0.625001 4.75758e-08 9.43192e-09)
(0.625001 2.73332e-08 3.74215e-08)
(0.625006 3.14632e-07 9.57356e-09)
(0.625 7.57117e-09 3.95193e-08)
(0.625006 3.60357e-07 1.49973e-07)
(0.625005 -2.39338e-07 -4.98789e-08)
(0.625 -9.84917e-10 6.44928e-08)
(0.625006 3.38331e-07 7.65252e-08)
(0.625005 -1.99252e-07 -3.80824e-08)
(0.625005 2.39998e-07 1.06194e-08)
(0.625 -7.39088e-09 6.14093e-08)
(0.625006 3.59185e-07 3.69509e-07)
(0.625005 -2.1913e-07 -2.63443e-07)
(0.625005 2.6419e-07 1.35461e-07)
(0.625006 -2.09298e-07 -4.69635e-08)
(0.625 -9.99382e-09 7.62045e-08)
(0.625006 2.99485e-07 1.95995e-07)
(0.625005 -1.61796e-07 -1.28306e-07)
(0.625005 2.22969e-07 8.14951e-08)
(0.625006 -1.51001e-07 -4.31986e-08)
(0.625004 8.07266e-08 6.0798e-09)
(0.625 -1.07646e-08 6.59022e-08)
(0.625006 2.94869e-07 4.88289e-07)
(0.625005 -1.70483e-07 -4.24204e-07)
(0.625005 2.29095e-07 3.26077e-07)
(0.625006 -1.55671e-07 -2.45848e-07)
(0.625004 8.60135e-08 6.35281e-08)
(0.625004 -1.09477e-07 -2.31748e-08)
(0.625 -6.59211e-09 6.49441e-08)
(0.625006 2.12482e-07 3.31854e-07)
(0.625005 -9.81278e-08 -2.5756e-07)
(0.625005 1.60589e-07 2.0207e-07)
(0.625006 -8.17386e-08 -1.44612e-07)
(0.625004 5.81562e-08 4.3667e-08)
(0.625004 -6.75406e-08 -2.63814e-08)
(0.625003 2.51185e-08 1.45335e-09)
(0.625 -2.93494e-09 5.6237e-08)
(0.625006 1.86323e-07 4.85005e-07)
(0.625005 -9.76488e-08 -4.60481e-07)
(0.625005 1.48903e-07 4.24006e-07)
(0.625006 -8.42596e-08 -3.83598e-07)
(0.625004 5.83977e-08 1.46118e-07)
(0.625004 -6.27184e-08 -1.2033e-07)
(0.625003 2.25941e-08 1.44621e-08)
(0.625003 1.40982e-08 -6.37097e-09)
(0.625 7.87359e-10 4.90889e-08)
(0.625006 1.1007e-07 4.06022e-07)
(0.625005 -3.69714e-08 -3.62494e-07)
(0.625005 7.03791e-08 3.30271e-07)
(0.625006 -1.27472e-08 -2.74614e-07)
(0.625004 2.08312e-08 1.05424e-07)
(0.625004 -1.55379e-08 -8.86496e-08)
(0.625003 1.01303e-08 1.10257e-08)
(0.625003 1.71202e-08 -9.73815e-09)
(0.625002 5.62847e-08 -7.33982e-10)
(0.625 2.41072e-09 4.04453e-08)
(0.625006 7.22525e-08 4.17854e-07)
(0.625005 -3.17428e-08 -4.09848e-07)
(0.625005 5.10937e-08 4.13317e-07)
(0.625006 -1.91677e-08 -3.99504e-07)
(0.625004 1.82704e-08 1.79684e-07)
(0.625004 -1.42444e-08 -1.79077e-07)
(0.625003 8.0543e-09 2.99542e-08)
(0.625003 8.75318e-09 -3.18273e-08)
(0.625002 3.23248e-08 -3.40494e-09)
(0.625001 7.61009e-08 -5.41676e-11)
(0.625 1.47401e-09 3.20934e-08)
(0.625006 2.10278e-08 3.76359e-07)
(0.625005 -3.68926e-09 -3.70996e-07)
(0.625005 3.62073e-09 3.75113e-07)
(0.625006 1.80008e-08 -3.52076e-07)
(0.625004 -1.09106e-08 1.56582e-07)
(0.625004 2.23704e-08 -1.51556e-07)
(0.625003 -4.68014e-09 2.40766e-08)
(0.625003 1.42873e-08 -2.96822e-08)
(0.625002 1.24753e-08 -4.43761e-09)
(0.625001 2.28634e-08 -7.6669e-10)
(0.624999 5.70774e-08 -6.50214e-10)
(0.625001 5.7913e-08 1.26723e-08)
(0.625001 4.33106e-08 2.83095e-08)
(0.625006 3.23248e-07 4.79201e-08)
(0.625 1.93171e-08 6.02917e-08)
(0.625006 3.17401e-07 3.3091e-08)
(0.625005 -2.07151e-07 -1.00829e-08)
(0.625 -1.35021e-09 5.39933e-08)
(0.625006 3.64313e-07 2.6601e-07)
(0.625005 -2.35918e-07 -1.58269e-07)
(0.625005 2.59757e-07 4.3892e-08)
(0.625 -7.5312e-09 7.52476e-08)
(0.625006 3.41636e-07 1.20048e-07)
(0.625005 -1.94244e-07 -7.50234e-08)
(0.625005 2.40047e-07 3.67974e-08)
(0.625006 -1.89437e-07 -1.13353e-08)
(0.625 -1.12444e-08 6.87369e-08)
(0.625006 3.63093e-07 4.56158e-07)
(0.625005 -2.1542e-07 -3.73558e-07)
(0.625005 2.6517e-07 2.40195e-07)
(0.625006 -2.08357e-07 -1.49063e-07)
(0.625004 1.01652e-07 2.13467e-08)
(0.625 -1.15355e-08 7.69002e-08)
(0.625006 3.02008e-07 2.52557e-07)
(0.625005 -1.58637e-07 -1.81215e-07)
(0.625005 2.23446e-07 1.2787e-07)
(0.625006 -1.49299e-07 -8.55911e-08)
(0.625004 8.04785e-08 2.09181e-08)
(0.625004 -1.08251e-07 -6.68757e-09)
(0.625 -1.02538e-08 6.69411e-08)
(0.625006 2.96227e-07 5.19731e-07)
(0.625005 -1.69191e-07 -4.82147e-07)
(0.625005 2.3021e-07 4.01621e-07)
(0.625006 -1.54891e-07 -3.47476e-07)
(0.625004 8.57902e-08 1.11605e-07)
(0.625004 -1.09362e-07 -7.34935e-08)
(0.625003 3.51261e-08 4.91465e-09)
(0.625 -5.55159e-09 6.1512e-08)
(0.625006 2.17068e-07 3.74689e-07)
(0.625005 -1.00461e-07 -3.11649e-07)
(0.625005 1.62038e-07 2.59168e-07)
(0.625006 -8.19632e-08 -2.0275e-07)
(0.625004 5.77747e-08 6.83606e-08)
(0.625004 -6.75633e-08 -5.24394e-08)
(0.625003 2.5114e-08 4.91052e-09)
(0.625003 2.47782e-08 -2.61126e-09)
(0.625 -1.1109e-09 5.22986e-08)
(0.625006 1.87445e-07 4.75608e-07)
(0.625005 -9.8244e-08 -4.67718e-07)
(0.625005 1.49066e-07 4.5146e-07)
(0.625006 -8.48106e-08 -4.34665e-07)
(0.625004 5.81319e-08 1.78907e-07)
(0.625004 -6.30095e-08 -1.69333e-07)
(0.625003 2.25635e-08 2.47893e-08)
(0.625003 1.3977e-08 -2.03106e-08)
(0.625002 8.08079e-08 -1.22752e-09)
(0.625 2.60394e-09 4.32484e-08)
(0.625006 1.19015e-07 4.06388e-07)
(0.625005 -4.64326e-08 -3.82937e-07)
(0.625005 7.76412e-08 3.66265e-07)
(0.625006 -1.9871e-08 -3.25875e-07)
(0.625004 2.25807e-08 1.33506e-07)
(0.625004 -1.74695e-08 -1.22121e-07)
(0.625003 1.02979e-08 1.69801e-08)
(0.625003 1.67631e-08 -1.92219e-08)
(0.625002 5.5733e-08 -2.51245e-09)
(0.625001 1.32094e-07 -3.75892e-10)
(0.625 3.82632e-09 3.37348e-08)
(0.625006 7.68321e-08 3.90736e-07)
(0.625005 -3.6301e-08 -3.95537e-07)
(0.625005 5.45617e-08 4.11409e-07)
(0.625006 -2.27907e-08 -4.11747e-07)
(0.625004 1.91354e-08 1.92845e-07)
(0.625004 -1.56768e-08 -2.04012e-07)
(0.625003 8.1718e-09 3.63132e-08)
(0.625003 8.33609e-09 -4.49818e-08)
(0.625002 3.1886e-08 -6.18649e-09)
(0.625001 7.58667e-08 -2.17913e-10)
(0.624999 1.56788e-07 -1.75529e-09)
(0.625 2.05093e-09 2.50057e-08)
(0.625006 2.49475e-08 3.43241e-07)
(0.625005 -9.68289e-09 -3.54679e-07)
(0.625005 1.15641e-08 3.74179e-07)
(0.625006 6.45882e-09 -3.70492e-07)
(0.625004 -4.50083e-09 1.72261e-07)
(0.625004 1.43092e-08 -1.77458e-07)
(0.625003 -2.9143e-09 3.00493e-08)
(0.625003 1.22314e-08 -4.01529e-08)
(0.625002 1.20842e-08 -6.63058e-09)
(0.625001 2.29255e-08 -1.28235e-09)
(0.624999 5.67659e-08 -2.4242e-09)
(0.624995 9.41062e-08 9.41619e-10)
(0.625001 6.93703e-08 9.57124e-09)
(0.625001 5.61995e-08 3.76381e-08)
(0.625006 2.68122e-07 6.33598e-09)
(0.625 3.80455e-08 4.66375e-08)
(0.625006 3.26383e-07 1.52483e-07)
(0.625005 -2.20366e-07 -5.19439e-08)
(0.625 1.17227e-08 7.97108e-08)
(0.625006 3.20656e-07 6.48626e-08)
(0.625005 -2.03443e-07 -3.4645e-08)
(0.625005 2.12999e-07 9.33531e-09)
(0.625 -8.2276e-09 6.50562e-08)
(0.625006 3.68283e-07 3.78331e-07)
(0.625005 -2.31828e-07 -2.80595e-07)
(0.625005 2.59948e-07 1.39654e-07)
(0.625006 -2.22603e-07 -4.85832e-08)
(0.625 -1.1852e-08 8.17506e-08)
(0.625006 3.43941e-07 1.68358e-07)
(0.625005 -1.89364e-07 -1.18027e-07)
(0.625005 2.40002e-07 7.2241e-08)
(0.625006 -1.88334e-07 -3.938e-08)
(0.625004 9.2258e-08 5.7136e-09)
(0.625 -1.33998e-08 7.19743e-08)
(0.625006 3.65662e-07 5.21043e-07)
(0.625005 -2.12779e-07 -4.61329e-07)
(0.625005 2.66334e-07 3.41543e-07)
(0.625006 -2.07324e-07 -2.6426e-07)
(0.625004 1.01728e-07 6.7586e-08)
(0.625004 -1.33423e-07 -2.39548e-08)
(0.625 -1.17898e-08 7.57637e-08)
(0.625006 3.04199e-07 3.06425e-07)
(0.625005 -1.57213e-07 -2.36692e-07)
(0.625005 2.23785e-07 1.79305e-07)
(0.625006 -1.47736e-07 -1.34463e-07)
(0.625004 8.01821e-08 4.0681e-08)
(0.625004 -1.07867e-07 -2.34706e-08)
(0.625003 3.63969e-08 1.05671e-09)
(0.625 -9.23875e-09 6.44681e-08)
(0.625006 2.96671e-07 5.28629e-07)
(0.625005 -1.68533e-07 -5.12269e-07)
(0.625005 2.30884e-07 4.57929e-07)
(0.625006 -1.54631e-07 -4.27269e-07)
(0.625004 8.57394e-08 1.57679e-07)
(0.625004 -1.09252e-07 -1.29928e-07)
(0.625003 3.51763e-08 1.52873e-08)
(0.625003 2.62081e-08 -7.02724e-09)
(0.625 -3.85507e-09 5.71439e-08)
(0.625006 2.22549e-07 4.01349e-07)
(0.625005 -1.04919e-07 -3.54422e-07)
(0.625005 1.64188e-07 3.11458e-07)
(0.625006 -8.36678e-08 -2.61594e-07)
(0.625004 5.76682e-08 9.55965e-08)
(0.625004 -6.76937e-08 -8.20041e-08)
(0.625003 2.51051e-08 9.37232e-09)
(0.625003 2.46975e-08 -9.16599e-09)
(0.625002 1.09833e-07 -7.64201e-10)
(0.625 8.49403e-10 4.64235e-08)
(0.625006 1.89211e-07 4.52439e-07)
(0.625005 -9.96442e-08 -4.57096e-07)
(0.625005 1.49085e-07 4.59876e-07)
(0.625006 -8.57794e-08 -4.61768e-07)
(0.625004 5.79021e-08 2.0317e-07)
(0.625004 -6.33755e-08 -2.07478e-07)
(0.625003 2.25351e-08 3.44683e-08)
(0.625003 1.38125e-08 -3.60257e-08)
(0.625002 7.99889e-08 -3.97605e-09)
(0.625001 1.9583e-07 -6.51637e-11)
(0.625 4.48149e-09 3.61418e-08)
(0.625006 1.27323e-07 3.88261e-07)
(0.625005 -5.60807e-08 -3.84021e-07)
(0.625005 8.55527e-08 3.85182e-07)
(0.625006 -2.88678e-08 -3.63358e-07)
(0.625004 2.50816e-08 1.57788e-07)
(0.625004 -2.03263e-08 -1.54352e-07)
(0.625003 1.05948e-08 2.34054e-08)
(0.625003 1.6281e-08 -2.96535e-08)
(0.625002 5.50342e-08 -4.80842e-09)
(0.625001 1.31601e-07 -1.1564e-09)
(0.624999 2.74652e-07 -5.0397e-10)
(0.625 5.28658e-09 2.63093e-08)
(0.625006 8.12869e-08 3.51848e-07)
(0.625005 -4.10197e-08 -3.69336e-07)
(0.625005 5.84525e-08 3.96735e-07)
(0.625006 -2.70753e-08 -4.09937e-07)
(0.625004 2.03268e-08 1.98716e-07)
(0.625004 -1.7302e-08 -2.19369e-07)
(0.625003 8.31283e-09 4.106e-08)
(0.625003 7.91759e-09 -5.5604e-08)
(0.625002 3.14295e-08 -8.88693e-09)
(0.625001 7.55658e-08 -3.8356e-10)
(0.624999 1.56851e-07 -5.60143e-09)
(0.624995 3.14432e-07 2.28284e-09)
(0.625 2.42741e-09 1.75938e-08)
(0.625006 2.75509e-08 2.97361e-07)
(0.625005 -1.36686e-08 -3.23174e-07)
(0.625005 1.70358e-08 3.56489e-07)
(0.625006 -2.22183e-09 -3.71109e-07)
(0.625004 5.83203e-10 1.80263e-07)
(0.625004 6.84795e-09 -1.95712e-07)
(0.625003 -1.2254e-09 3.50337e-08)
(0.625003 9.94727e-09 -4.98773e-08)
(0.625002 1.16757e-08 -8.72748e-09)
(0.625001 2.30274e-08 -1.69019e-09)
(0.624999 5.62928e-08 -5.03154e-09)
(0.624995 9.45397e-08 3.25403e-09)
(0.62499 2.00596e-07 -3.62612e-10)
(0.625001 7.74912e-08 1.11087e-08)
(0.625001 7.05711e-08 2.86659e-08)
(0.625006 2.48393e-07 4.85917e-08)
(0.625 5.40994e-08 6.06098e-08)
(0.625006 2.695e-07 2.2733e-08)
(0.625005 -1.7865e-07 -8.53896e-09)
(0.625 3.2908e-08 6.32456e-08)
(0.625006 3.30209e-07 2.71297e-07)
(0.625005 -2.18088e-07 -1.64872e-07)
(0.625005 2.20968e-07 4.54334e-08)
(0.625 5.82093e-09 9.24301e-08)
(0.625006 3.2354e-07 1.01613e-07)
(0.625005 -1.98794e-07 -6.75917e-08)
(0.625005 2.12847e-07 3.21586e-08)
(0.625006 -1.83542e-07 -9.60878e-09)
(0.625 -1.23966e-08 7.30488e-08)
(0.625006 3.71537e-07 4.69232e-07)
(0.625005 -2.28133e-07 -3.99122e-07)
(0.625005 2.60255e-07 2.4847e-07)
(0.625006 -2.2211e-07 -1.54626e-07)
(0.625004 1.0553e-07 2.20485e-08)
(0.625 -1.42765e-08 8.28541e-08)
(0.625006 3.45102e-07 2.19386e-07)
(0.625005 -1.8554e-07 -1.66386e-07)
(0.625005 2.39771e-07 1.13293e-07)
(0.625006 -1.86883e-07 -7.7524e-08)
(0.625004 9.22436e-08 1.94826e-08)
(0.625004 -1.17524e-07 -5.90278e-09)
(0.625 -1.41391e-08 7.3438e-08)
(0.625006 3.6671e-07 5.56119e-07)
(0.625005 -2.11456e-07 -5.27035e-07)
(0.625005 2.67413e-07 4.23337e-07)
(0.625006 -2.06624e-07 -3.75419e-07)
(0.625004 1.01884e-07 1.19405e-07)
(0.625004 -1.33019e-07 -7.6228e-08)
(0.625003 4.40328e-08 5.05372e-09)
(0.625 -1.14646e-08 7.14155e-08)
(0.625006 3.06753e-07 3.51591e-07)
(0.625005 -1.57674e-07 -2.90691e-07)
(0.625005 2.24159e-07 2.32616e-07)
(0.625006 -1.46816e-07 -1.88729e-07)
(0.625004 7.99302e-08 6.34224e-08)
(0.625004 -1.07341e-07 -4.65449e-08)
(0.625003 3.63138e-08 3.62298e-09)
(0.625003 4.08111e-08 -2.60285e-09)
(0.625 -7.57279e-09 6.05955e-08)
(0.625006 2.96485e-07 5.1593e-07)
(0.625005 -1.68344e-07 -5.19619e-07)
(0.625005 2.30887e-07 4.88287e-07)
(0.625006 -1.54945e-07 -4.86263e-07)
(0.625004 8.5836e-08 1.94184e-07)
(0.625004 -1.09244e-07 -1.8398e-07)
(0.625003 3.52277e-08 2.63779e-08)
(0.625003 2.61098e-08 -2.24172e-08)
(0.625002 1.40557e-07 -1.19412e-09)
(0.625 -2.02728e-09 5.05623e-08)
(0.625006 2.28907e-07 4.08273e-07)
(0.625005 -1.11149e-07 -3.81644e-07)
(0.625005 1.67406e-07 3.52302e-07)
(0.625006 -8.71255e-08 -3.15931e-07)
(0.625004 5.80429e-08 1.23113e-07)
(0.625004 -6.8096e-08 -1.14125e-07)
(0.625003 2.50946e-08 1.45823e-08)
(0.625003 2.45664e-08 -1.80888e-08)
(0.625002 1.08732e-07 -2.58851e-09)
(0.625001 2.64729e-07 -3.77108e-10)
(0.625 2.95505e-09 3.91094e-08)
(0.625006 1.91988e-07 4.17535e-07)
(0.625005 -1.01985e-07 -4.33357e-07)
(0.625005 1.49361e-07 4.50568e-07)
(0.625006 -8.72435e-08 -4.69416e-07)
(0.625004 5.76787e-08 2.16362e-07)
(0.625004 -6.37916e-08 -2.35709e-07)
(0.625003 2.24907e-08 4.17795e-08)
(0.625003 1.36085e-08 -5.11194e-08)
(0.625002 7.89748e-08 -7.20204e-09)
(0.625001 1.95033e-07 -2.20419e-10)
(0.624999 4.00252e-07 -1.97277e-09)
(0.625 6.31577e-09 2.82844e-08)
(0.625006 1.34773e-07 3.53858e-07)
(0.625005 -6.50788e-08 -3.67047e-07)
(0.625005 9.35033e-08 3.84932e-07)
(0.625006 -3.88767e-08 -3.83918e-07)
(0.625004 2.82926e-08 1.7522e-07)
(0.625004 -2.41083e-08 -1.8217e-07)
(0.625003 1.10667e-08 2.96467e-08)
(0.625003 1.56408e-08 -4.05131e-08)
(0.625002 5.43135e-08 -7.15791e-09)
(0.625001 1.30993e-07 -1.9013e-09)
(0.624999 2.74867e-07 -2.02328e-09)
(0.624995 5.49064e-07 8.45479e-10)
(0.625 6.33627e-09 1.84465e-08)
(0.625006 8.53627e-08 3.02787e-07)
(0.625005 -4.5651e-08 -3.31792e-07)
(0.625005 6.24473e-08 3.69866e-07)
(0.625006 -3.19577e-08 -3.95883e-07)
(0.625004 2.17625e-08 1.97564e-07)
(0.625004 -1.93616e-08 -2.26583e-07)
(0.625003 8.47161e-09 4.37586e-08)
(0.625003 7.44854e-09 -6.40034e-08)
(0.625002 3.10227e-08 -1.11134e-08)
(0.625001 7.52477e-08 -4.95488e-10)
(0.624999 1.56927e-07 -9.98766e-09)
(0.624995 3.14612e-07 7.11627e-09)
(0.62499 6.01663e-07 -1.20553e-09)
(0.625 2.70561e-09 9.80855e-09)
(0.625006 2.94322e-08 2.42314e-07)
(0.625005 -1.62534e-08 -2.78933e-07)
(0.625005 2.06528e-08 3.2368e-07)
(0.625006 -8.30763e-09 -3.55018e-07)
(0.625004 4.35774e-09 1.79494e-07)
(0.625004 8.62045e-10 -2.05467e-07)
(0.625003 3.1692e-10 3.84357e-08)
(0.625003 7.7415e-09 -5.81258e-08)
(0.625002 1.12479e-08 -1.06157e-08)
(0.625001 2.31535e-08 -1.89098e-09)
(0.624999 5.56036e-08 -7.98964e-09)
(0.624995 9.51836e-08 6.3016e-09)
(0.62499 2.00027e-07 -1.41562e-09)
(0.624981 3.51421e-07 -6.15996e-09)
(0.625001 7.58417e-08 7.32823e-09)
(0.625001 8.02862e-08 3.30298e-08)
(0.625006 1.94625e-07 6.43503e-09)
(0.625 7.19753e-08 4.70821e-08)
(0.625006 2.4916e-07 1.54683e-07)
(0.625005 -1.80605e-07 -5.24383e-08)
(0.625 5.20782e-08 8.02067e-08)
(0.625006 2.71055e-07 4.64634e-08)
(0.625005 -1.76258e-07 -2.93538e-08)
(0.625005 1.7618e-07 8.08267e-09)
(0.625 2.87213e-08 7.55141e-08)
(0.625006 3.33897e-07 3.87012e-07)
(0.625005 -2.15356e-07 -2.92463e-07)
(0.625005 2.21074e-07 1.44855e-07)
(0.625006 -1.79973e-07 -4.9159e-08)
(0.625 2.15658e-09 9.96419e-08)
(0.625006 3.25542e-07 1.42675e-07)
(0.625005 -1.94123e-07 -1.05938e-07)
(0.625005 2.12593e-07 6.28176e-08)
(0.625006 -1.82707e-07 -3.32821e-08)
(0.625004 8.70823e-08 5.11292e-09)
(0.625 -1.43458e-08 7.69612e-08)
(0.625006 3.73759e-07 5.38528e-07)
(0.625005 -2.25433e-07 -4.95078e-07)
(0.625005 2.60733e-07 3.54609e-07)
(0.625006 -2.21559e-07 -2.75247e-07)
(0.625004 1.05744e-07 7.00162e-08)
(0.625004 -1.25367e-07 -2.46127e-08)
(0.625 -1.51765e-08 8.20668e-08)
(0.625006 3.45507e-07 2.70042e-07)
(0.625005 -1.8326e-07 -2.18019e-07)
(0.625005 2.39424e-07 1.59129e-07)
(0.625006 -1.85302e-07 -1.2167e-07)
(0.625004 9.21862e-08 3.75936e-08)
(0.625004 -1.168e-07 -2.05755e-08)
(0.625003 4.54712e-08 9.38541e-10)
(0.625 -1.41765e-08 7.10482e-08)
(0.625006 3.6647e-07 5.66463e-07)
(0.625005 -2.10982e-07 -5.62319e-07)
(0.625005 2.68281e-07 4.85398e-07)
(0.625006 -2.06335e-07 -4.6451e-07)
(0.625004 1.02188e-07 1.69513e-07)
(0.625004 -1.32551e-07 -1.35532e-07)
(0.625003 4.38494e-08 1.58129e-08)
(0.625003 4.78365e-08 -7.7918e-09)
(0.625 -1.04449e-08 6.64257e-08)
(0.625006 3.09859e-07 3.83486e-07)
(0.625005 -1.60227e-07 -3.36702e-07)
(0.625005 2.24879e-07 2.83916e-07)
(0.625006 -1.46981e-07 -2.45128e-07)
(0.625004 7.98664e-08 8.86025e-08)
(0.625004 -1.06749e-07 -7.30451e-08)
(0.625003 3.61995e-08 7.06838e-09)
(0.625003 4.07042e-08 -9.00416e-09)
(0.625002 1.76734e-07 -4.61102e-10)
(0.625 -5.88369e-09 5.40871e-08)
(0.625006 2.96359e-07 4.88127e-07)
(0.625005 -1.6851e-07 -5.05509e-07)
(0.625005 2.30308e-07 4.96976e-07)
(0.625006 -1.55546e-07 -5.17296e-07)
(0.625004 8.60714e-08 2.2142e-07)
(0.625004 -1.09271e-07 -2.26763e-07)
(0.625003 3.52649e-08 3.68587e-08)
(0.625003 2.59639e-08 -3.98422e-08)
(0.625002 1.39224e-07 -3.91211e-09)
(0.625001 3.41667e-07 -1.65406e-11)
(0.625 1.88155e-11 4.26843e-08)
(0.625006 2.3569e-07 3.95482e-07)
(0.625005 -1.1871e-07 -3.89219e-07)
(0.625005 1.71647e-07 3.77677e-07)
(0.625006 -9.25655e-08 -3.58815e-07)
(0.625004 5.90123e-08 1.48485e-07)
(0.625004 -6.89907e-08 -1.46228e-07)
(0.625003 2.51085e-08 2.04545e-08)
(0.625003 2.43613e-08 -2.80563e-08)
(0.625002 1.07384e-07 -4.8996e-09)
(0.625001 2.63638e-07 -1.17677e-09)
(0.624999 5.43885e-07 -4.80374e-10)
(0.625 4.94003e-09 3.06638e-08)
(0.625006 1.95725e-07 3.72653e-07)
(0.625005 -1.0557e-07 -3.98621e-07)
(0.625005 1.50234e-07 4.27809e-07)
(0.625006 -8.94895e-08 -4.5912e-07)
(0.625004 5.75076e-08 2.2036e-07)
(0.625004 -6.4254e-08 -2.51126e-07)
(0.625003 2.24154e-08 4.69853e-08)
(0.625003 1.33933e-08 -6.32973e-08)
(0.625002 7.79732e-08 -1.03207e-08)
(0.625001 1.94056e-07 -3.08056e-10)
(0.624999 4.0062e-07 -6.33424e-09)
(0.624995 8.14327e-07 2.5377e-09)
(0.625 7.7308e-09 1.97677e-08)
(0.625006 1.41289e-07 3.0661e-07)
(0.625005 -7.31794e-08 -3.34171e-07)
(0.625005 1.00831e-07 3.66753e-07)
(0.625006 -4.90997e-08 -3.8517e-07)
(0.625004 3.18841e-08 1.84354e-07)
(0.625004 -2.877e-08 -2.02201e-07)
(0.625003 1.16964e-08 3.50083e-08)
(0.625003 1.47802e-08 -5.08258e-08)
(0.625002 5.3664e-08 -9.36632e-09)
(0.625001 1.30396e-07 -2.49007e-09)
(0.624999 2.75111e-07 -4.51791e-09)
(0.624995 5.49264e-07 3.01209e-09)
(0.62499 1.05312e-06 -1.61209e-10)
(0.625 7.03448e-09 1.02868e-08)
(0.625006 8.91029e-08 2.46013e-07)
(0.625005 -4.98448e-08 -2.84442e-07)
(0.625005 6.63279e-08 3.3151e-07)
(0.625006 -3.70183e-08 -3.69938e-07)
(0.625004 2.34419e-08 1.90186e-07)
(0.625004 -2.17201e-08 -2.25933e-07)
(0.625003 8.69391e-09 4.47773e-08)
(0.625003 6.93375e-09 -6.95337e-08)
(0.625002 3.06741e-08 -1.29005e-08)
(0.625001 7.49522e-08 -6.19755e-10)
(0.624999 1.56985e-07 -1.41602e-08)
(0.624995 3.14844e-07 1.23269e-08)
(0.62499 6.01092e-07 -3.83018e-09)
(0.624981 1.11615e-06 -5.16983e-09)
(0.625 2.806e-09 2.12026e-09)
(0.625006 3.07806e-08 1.82265e-07)
(0.625005 -1.82742e-08 -2.25785e-07)
(0.625005 2.29823e-08 2.78404e-07)
(0.625006 -1.23923e-08 -3.23746e-07)
(0.625004 6.94297e-09 1.7056e-07)
(0.625004 -3.65691e-09 -2.05372e-07)
(0.625003 1.53595e-09 4.00644e-08)
(0.625003 5.68691e-09 -6.38733e-08)
(0.625002 1.08457e-08 -1.21615e-08)
(0.625001 2.33146e-08 -1.94473e-09)
(0.624999 5.48158e-08 -1.12341e-08)
(0.624995 9.60876e-08 9.69036e-09)
(0.62499 1.99277e-07 -3.09299e-09)
(0.624981 3.518e-07 -1.90993e-08)
(0.624971 6.88005e-07 -1.45914e-08)
(0.625001 7.87868e-08 9.1363e-09)
(0.625001 7.80051e-08 2.20086e-08)
(0.625006 1.84943e-07 5.02603e-08)
(0.625001 8.36405e-08 5.33178e-08)
(0.625006 1.95318e-07 2.23825e-08)
(0.625005 -1.23958e-07 -5.42055e-09)
(0.625 7.31831e-08 6.36179e-08)
(0.625006 2.50221e-07 2.75413e-07)
(0.625005 -1.78856e-07 -1.6662e-07)
(0.625005 1.6754e-07 4.60888e-08)
(0.625 5.04539e-08 9.32663e-08)
(0.625006 2.72306e-07 7.51316e-08)
(0.625005 -1.73165e-07 -5.73989e-08)
(0.625005 1.75638e-07 2.78449e-08)
(0.625006 -1.21619e-07 -8.168e-09)
(0.625 2.58266e-08 8.39515e-08)
(0.625006 3.36772e-07 4.81786e-07)