/*--------------------------------*- C++ -*----------------------------------*\
  =========                 |
  \\      /  F ield         | OpenFOAM: The Open Source CFD Toolbox
   \\    /   O peration     | Website:  https://openfoam.org
    \\  /    A nd           | Version:  7
     \\/     M anipulation  |
\*---------------------------------------------------------------------------*/
FoamFile
{
    version     2.0;
    format      ascii;
    class       surfaceScalarField;
    location    "300";
    object      phi;
}
// * * * * * * * * * * * * * * * * * * * * * * * * * * * * * * * * * * * * * //

dimensions      [0 3 -1 0 0 0 0];

internalField   nonuniform List<scalar> 
125460
(
1.53999e-17
-1.16564e-17
3.10816e-11
3.3742e-17
-1.49913e-17
3.44851e-11
1.9418e-17
-1.86508e-17
3.92856e-11
-1.61087e-16
9.45947e-16
3.10817e-11
5.43717e-17
-1.54179e-17
3.81993e-11
4.28749e-17
-2.43637e-17
4.35875e-11
2.09933e-16
2.97467e-15
3.44853e-11
2.44118e-17
-2.78831e-17
4.94312e-11
-2.26412e-16
2.4666e-15
3.92858e-11
2.08165e-16
-8.85322e-16
3.10817e-11
7.5933e-17
-2.15777e-17
4.22374e-11
6.88776e-17
-2.48327e-17
4.82821e-11
3.7152e-16
1.10153e-15
3.81995e-11
5.41545e-17
-3.65711e-17
5.4844e-11
3.12279e-16
6.06953e-15
4.35877e-11
-1.00798e-16
-2.91324e-15
3.44852e-11
3.04769e-17
-3.65655e-17
6.18445e-11
-2.84188e-16
4.10173e-15
4.94314e-11
2.8547e-16
-2.28845e-15
3.92857e-11
-1.48606e-16
8.63914e-16
3.10817e-11
9.84084e-17
-2.22472e-17
4.66094e-11
9.63843e-17
-3.74041e-17
5.3386e-11
6.84136e-16
4.03061e-15
4.22376e-11
8.68653e-17
-3.67102e-17
6.0751e-11
4.11758e-16
2.97996e-15
4.82823e-11
-1.99778e-16
-1.03162e-15
3.81994e-11
6.79187e-17
-4.77323e-17
6.86166e-11
4.29796e-16
9.39191e-15
5.48443e-11
-1.75422e-16
-5.8766e-15
4.35876e-11
1.65847e-16
2.65785e-15
3.44852e-11
3.77471e-17
-4.70064e-17
7.68242e-11
-3.14687e-16
6.066e-15
6.18448e-11
3.57917e-16
-3.80824e-15
4.94313e-11
-2.07879e-16
2.22144e-15
3.92858e-11
2.0838e-16
-7.73308e-16
3.10816e-11
1.21453e-16
-3.12411e-17
5.13199e-11
1.24709e-16
-3.90351e-17
5.8912e-11
7.81119e-16
1.13219e-15
4.66096e-11
1.21683e-16
-5.71034e-17
6.7173e-11
9.24639e-16
8.33434e-15
5.33862e-11
-4.59554e-16
-3.98978e-15
4.22375e-11
1.08825e-16
-4.83368e-17
7.6007e-11
4.73632e-16
5.08427e-15
6.07513e-11
-1.95168e-16
-2.76813e-15
4.82822e-11
2.90049e-16
1.00544e-15
3.81995e-11
8.43551e-17
-6.0174e-17
8.52366e-11
5.68565e-16
1.16959e-14
6.8617e-11
-2.59003e-16
-9.06847e-15
5.48442e-11
2.51422e-16
5.40422e-15
4.35877e-11
-3.95565e-17
-2.56908e-15
3.44852e-11
4.63226e-17
-5.42736e-17
9.45976e-11
-3.14892e-16
7.9481e-15
7.68246e-11
4.06176e-16
-5.64335e-15
6.18446e-11
-2.60849e-16
3.68395e-15
4.94314e-11
2.83078e-16
-2.00285e-15
3.92857e-11
-6.59491e-17
3.94823e-16
3.10816e-11
1.44653e-16
-3.55275e-17
5.63719e-11
1.54211e-16
-5.87378e-17
6.48658e-11
1.04375e-15
5.17886e-15
5.13201e-11
1.57323e-16
-5.90766e-17
7.41261e-11
9.13107e-16
3.12017e-15
5.89123e-11
-5.11863e-16
-1.0488e-15
4.66095e-11
1.52574e-16
-7.49864e-17
8.40417e-11
1.20994e-15
1.30217e-14
6.71734e-11
-6.43362e-16
-8.1701e-15
5.33861e-11
5.43805e-16
3.58699e-15
4.22375e-11
1.35226e-16
-6.17999e-17
9.44171e-11
5.59924e-16
7.55684e-15
7.60074e-11
-2.02329e-16
-4.73069e-15
6.07512e-11
3.1589e-16
2.67618e-15
4.82823e-11
-1.02556e-16
-9.06144e-16
3.81994e-11
1.03548e-16
-6.89555e-17
1.04956e-10
7.40109e-16
1.35799e-14
8.52372e-11
-3.56726e-16
-1.12277e-14
6.86167e-11
3.49173e-16
8.3552e-15
5.48443e-11
-9.28473e-17
-5.18063e-15
4.35876e-11
6.88411e-17
1.18807e-15
3.44851e-11
5.6119e-17
-6.05469e-17
1.15223e-10
-2.41275e-16
9.74685e-15
9.45982e-11
4.27434e-16
-7.42105e-15
7.68243e-11
-2.90186e-16
5.43248e-15
6.18448e-11
3.54839e-16
-3.33532e-15
4.94313e-11
-9.22065e-17
1.00031e-15
3.92857e-11
8.49194e-17
-3.82695e-16
3.10816e-11
1.66951e-16
-4.75274e-17
6.17566e-11
1.83342e-16
-6.83285e-17
7.12513e-11
1.07066e-15
1.22484e-15
5.63721e-11
1.94765e-16
-9.14038e-17
8.16175e-11
1.38935e-15
1.07967e-14
6.48661e-11
-7.36298e-16
-5.1605e-15
5.132e-11
1.97172e-16
-7.87012e-17
9.27409e-11
1.08645e-15
5.37447e-15
7.41265e-11
-5.73133e-16
-2.87871e-15
5.89121e-11
6.00607e-16
1.02611e-15
4.66096e-11
1.8954e-16
-9.4239e-17
1.04398e-10
1.55675e-15
1.63323e-14
8.40421e-11
-8.5901e-16
-1.27388e-14
6.71732e-11
7.41018e-16
7.39007e-15
5.33862e-11
-3.11682e-16
-3.53373e-15
4.22375e-11
1.66303e-16
-7.19959e-17
1.16261e-10
6.76866e-16
1.00145e-14
9.44176e-11
-2.22594e-16
-7.04561e-15
7.60071e-11
3.58559e-16
4.55021e-15
6.07513e-11
-7.93258e-17
-2.43675e-15
4.82822e-11
1.13653e-16
4.51042e-16
3.81994e-11
1.25395e-16
-7.5933e-17
1.2784e-10
9.21368e-16
1.4632e-14
1.04957e-10
-4.79081e-16
-1.29872e-14
8.52368e-11
4.64091e-16
1.04026e-14
6.8617e-11
-1.51269e-16
-7.99364e-15
5.48441e-11
1.05485e-16
2.40503e-15
4.35875e-11
-4.00071e-17
-1.19457e-15
3.44851e-11
6.69022e-17
-6.27372e-17
1.38504e-10
-1.02048e-16
1.10919e-14
1.15224e-10
3.79003e-16
-9.11271e-15
9.45977e-11
-2.93268e-16
7.10932e-15
7.68246e-11
4.06713e-16
-4.94903e-15
6.18445e-11
-1.15771e-16
1.65308e-15
4.94313e-11
1.16188e-16
-9.89601e-16
3.92856e-11
-1.17171e-17
9.12284e-17
3.10815e-11
1.86566e-16
-6.45047e-17
6.7456e-11
2.12152e-16
-9.65953e-17
7.80573e-11
1.26543e-15
6.45708e-15
6.17568e-11
2.31316e-16
-1.05856e-16
8.96521e-11
1.2668e-15
3.33664e-15
7.12516e-11
-7.17582e-16
-1.09656e-15
5.63721e-11
2.44325e-16
-1.22905e-16
1.02113e-10
1.805e-15
1.70026e-14
8.16179e-11
-1.00533e-15
-1.06755e-14
6.48659e-11
7.96634e-16
4.57876e-15
5.13201e-11
2.45076e-16
-1.00024e-16
1.15204e-10
1.29732e-15
8.15979e-15
9.27414e-11
-6.59902e-16
-4.97131e-15
7.41263e-11
6.94516e-16
2.77871e-15
5.89123e-11
-3.4402e-16
-9.43039e-16
4.66095e-11
2.32812e-16
-1.07696e-16
1.28551e-10
1.9743e-15
1.90725e-14
1.04399e-10
-1.12112e-15
-1.58886e-14
8.40418e-11
9.74143e-16
1.15356e-14
6.71733e-11
-4.5003e-16
-7.23996e-15
5.33861e-11
2.12217e-16
1.59091e-15
4.22374e-11
2.01944e-16
-8.07735e-17
1.4161e-10
8.7671e-16
1.23384e-14
1.16261e-10
-2.61046e-16
-9.37421e-15
9.44172e-11
4.19932e-16
6.74538e-15
7.60074e-11
-6.23878e-17
-4.1672e-15
6.07511e-11
1.2071e-16
1.18392e-15
4.82822e-11
-8.44978e-17
-4.53472e-16
3.81993e-11
1.49571e-16
-7.78456e-17
1.53671e-10
1.12455e-15
1.51765e-14
1.27841e-10
-6.02584e-16
-1.39179e-14
1.04956e-10
6.05786e-16
1.20786e-14
8.52371e-11
-2.19102e-16
-9.89467e-15
6.86167e-11
1.46997e-16
3.71369e-15
5.48441e-11
-6.98189e-17
-2.43157e-15
4.35875e-11
2.57289e-17
2.88863e-16
3.44851e-11
7.81882e-17
-6.16079e-17
1.63871e-10
1.19895e-16
1.19886e-14
1.38505e-10
2.69006e-16
-1.03797e-14
1.15223e-10
-2.3197e-16
8.7007e-15
9.45982e-11
4.36272e-16
-6.51452e-15
7.68243e-11
-1.29084e-16
2.43021e-15
6.18446e-11
1.45522e-16
-1.64339e-15
4.94312e-11
-1.6959e-17
2.26265e-16
3.92856e-11
3.70023e-17
-1.21037e-16
3.10815e-11
1.99728e-16
-8.06837e-17
7.34507e-11
2.36512e-16
-1.34474e-16
8.5261e-11
1.19333e-15
1.28511e-15
6.74562e-11
2.68115e-16
-1.52872e-16
9.82157e-11
1.67762e-15
1.3549e-14
7.80576e-11
-8.79825e-16
-6.49447e-15
6.17567e-11
2.89908e-16
-1.43069e-16
1.12166e-10
1.5176e-15
5.7578e-15
8.96526e-11
-8.2064e-16
-3.0039e-15
7.12515e-11
7.78464e-16
1.09226e-15
5.63721e-11
3.03722e-16
-1.55689e-16
1.26847e-10
2.3204e-15
2.14608e-14
1.02114e-10
-1.32672e-15
-1.67834e-14
8.16177e-11
1.07002e-15
9.51077e-15
6.48661e-11
-5.36757e-16
-4.60469e-15
5.132e-11
3.01518e-16
-1.16053e-16
1.41857e-10
1.55349e-15
1.10205e-14
1.15205e-10
-7.65416e-16
-7.58487e-15
9.2741e-11
8.19659e-16
4.76954e-15
7.41265e-11
-3.70237e-16
-2.58804e-15
5.89121e-11
2.20624e-16
4.49419e-16
4.66094e-11
2.82136e-16
-1.18451e-16
1.56579e-10
2.4253e-15
2.04619e-14
1.28551e-10
-1.43715e-15
-1.84846e-14
1.04398e-10
1.25701e-15
1.44614e-14
8.40421e-11
-6.11279e-16
-1.12899e-14
6.71731e-11
2.91782e-16
3.26196e-15
5.33861e-11
-1.95092e-16
-1.64388e-15
4.22374e-11
2.41344e-16
-8.46611e-17
1.70222e-10
1.17272e-15
1.41236e-14
1.41611e-10
-3.69513e-16
-1.15665e-14
1.16261e-10
5.04873e-16
8.92863e-15
9.44176e-11
-5.24768e-17
-6.21223e-15
7.60071e-11
1.33997e-16
2.00705e-15
6.07511e-11
-8.38652e-17
-1.21382e-15
4.82821e-11
4.00089e-17
1.01323e-16
3.81993e-11
1.75364e-16
-7.50352e-17
1.81815e-10
1.34558e-15
1.52075e-14
1.53672e-10
-7.39221e-16
-1.43769e-14
1.27841e-10
7.53298e-16
1.30096e-14
1.04957e-10
-3.05501e-16
-1.14445e-14
8.52367e-11
1.95324e-16
4.62048e-15
6.86167e-11
-1.03369e-16
-3.76058e-15
5.4844e-11
3.71265e-17
5.74081e-16
4.35874e-11
1.78927e-17
-3.37271e-16
3.4485e-11
8.9602e-17
-5.54622e-17
1.90285e-10
3.85004e-16
1.22841e-14
1.63872e-10
7.99224e-17
-1.1219e-14
1.38504e-10
-1.13667e-16
9.88445e-15
1.15224e-10
4.0567e-16
-8.00819e-15
9.45977e-11
-1.31126e-16
3.17556e-15
7.68243e-11
1.65159e-16
-2.42953e-15
6.18444e-11
-2.12321e-17
3.72144e-16
4.94311e-11
4.90528e-17
-3.12207e-16
3.92855e-11
3.4416e-17
1.21941e-18
3.10815e-11
2.00886e-16
-1.3503e-16
7.97005e-11
2.54304e-16
-1.76065e-16
9.28381e-11
1.28235e-15
7.74386e-15
7.3451e-11
2.98433e-16
-2.1265e-16
1.0728e-10
1.41227e-15
3.45144e-15
8.52614e-11
-7.8901e-16
-1.18004e-15
6.74561e-11
3.36513e-16
-2.10149e-16
1.2288e-10
2.17581e-15
2.14702e-14
9.82162e-11
-1.19661e-15
-1.35444e-14
7.80575e-11
9.07464e-16
5.68972e-15
6.17568e-11
3.6027e-16
-1.80913e-16
1.39334e-10
1.81206e-15
8.76879e-15
1.12166e-10
-9.57759e-16
-5.21219e-15
8.96523e-11
9.0921e-16
2.93026e-15
7.12516e-11
-5.21876e-16
-1.02228e-15
5.6372e-11
3.73343e-16
-1.80573e-16
1.56193e-10
2.94813e-15
2.5256e-14
1.26848e-10
-1.72765e-15
-2.10896e-14
1.02114e-10
1.39789e-15
1.49625e-14
8.16179e-11
-7.45717e-16
-9.53993e-15
6.48659e-11
2.93608e-16
2.02883e-15
5.13199e-11
3.66313e-16
-1.2972e-16
1.72787e-10
1.91288e-15
1.39357e-14
1.41858e-10
-8.95266e-16
-1.03043e-14
1.15204e-10
9.71466e-16
7.22733e-15
9.27414e-11
-4.1297e-16
-4.46713e-15
7.41263e-11
2.49461e-16
1.20349e-15
5.89121e-11
-2.23804e-16
-4.798e-16
4.66094e-11
3.36702e-16
-1.21056e-16
1.88216e-10
2.90542e-15
2.10543e-14
1.5658e-10
-1.76813e-15
-1.9714e-14
1.28551e-10
1.59665e-15
1.68853e-14
1.04399e-10
-8.07795e-16
-1.40851e-14
8.40418e-11
3.85194e-16
5.08416e-15
6.71731e-11
-2.7155e-16
-3.39351e-15
5.3386e-11
6.95813e-17
3.87887e-16
4.22373e-11
2.83204e-16
-8.37833e-17
2.01397e-10
1.5991e-15
1.52935e-14
1.70223e-10
-5.61612e-16
-1.32564e-14
1.4161e-10
6.58707e-16
1.09821e-14
1.16261e-10
-5.39368e-17
-8.27088e-15
9.44172e-11
1.53954e-16
2.97387e-15
7.60071e-11
-8.83631e-17
-2.06637e-15
6.0751e-11
4.44782e-17
2.60903e-16
4.8282e-11
2.18494e-17
-1.44991e-16
3.81992e-11
2.01528e-16
-6.71129e-17
2.11122e-10
1.61086e-15
1.48219e-14
1.81816e-10
-8.85609e-16
-1.43439e-14
1.53671e-10
9.16868e-16
1.34856e-14
1.27841e-10
-3.89821e-16
-1.22654e-14
1.04956e-10
2.5433e-16
5.36242e-15
8.52368e-11
-1.42966e-16
-4.68539e-15
6.86166e-11
5.02124e-17
8.8118e-16
5.4844e-11
1.7571e-17
-6.99301e-16
4.35874e-11
7.40667e-17
9.22533e-18
3.4485e-11
1.00177e-16
-4.45754e-17
2.16209e-10
6.75178e-16
1.2013e-14
1.90287e-10
-1.49024e-16
-1.14879e-14
1.63871e-10
7.63953e-17
1.06594e-14
1.38505e-10
3.21809e-16
-9.13062e-15
1.15223e-10
-1.05345e-16
3.87817e-15
9.45978e-11
1.73831e-16
-3.18516e-15
7.68242e-11
-2.2626e-17
5.48895e-16
6.18444e-11
6.14696e-17
-5.15714e-16
4.94311e-11
4.34564e-17
1.49157e-19
3.92854e-11
7.12811e-17
-1.78948e-17
3.10814e-11
1.94296e-16
-1.3914e-16
8.61576e-11
2.54735e-16
-2.95309e-16
1.00737e-10
1.10692e-15
1.21671e-15
7.97008e-11
3.21869e-16
-2.82617e-16
1.16814e-10
1.70655e-15
1.63205e-14
9.28385e-11
-9.08647e-16
-7.96989e-15
7.34509e-11
3.73945e-16
-2.89572e-16
1.3422e-10
1.68941e-15
5.95941e-15
1.0728e-10
-9.00651e-16
-3.1862e-15
8.52612e-11
8.13527e-16
1.17768e-15
6.74562e-11
4.18478e-16
-2.6816e-16
1.52643e-10
2.80014e-15
2.72643e-14
1.22881e-10
-1.57786e-15
-2.14345e-14
9.82159e-11
1.21763e-15
1.19012e-14
7.80576e-11
-6.70126e-16
-5.82611e-15
6.17567e-11
4.43103e-16
-2.10556e-16
1.71569e-10
2.15848e-15
1.19333e-14
1.39335e-10
-1.11407e-15
-8.03109e-15
1.12166e-10
1.07861e-15
5.04181e-15
8.96525e-11
-5.8414e-16
-2.78739e-15
7.12514e-11
2.78881e-16
4.92643e-16
5.6372e-11
4.52759e-16
-2.00576e-16
1.90249e-10
3.64924e-15
2.71563e-14
1.56194e-10
-2.21806e-15
-2.47407e-14
1.26847e-10
1.805e-15
1.88772e-14
1.02114e-10
-9.94609e-16
-1.50034e-14
8.16176e-11
3.98701e-16
4.1973e-15
6.48659e-11
-3.21045e-16
-2.13345e-15
5.13199e-11
4.38219e-16
-1.35361e-16
2.07699e-10
2.39573e-15
1.63436e-14
1.72788e-10
-1.10657e-15
-1.3075e-14
1.41857e-10
1.15564e-15
9.75549e-15
1.15205e-10
-4.65498e-16
-6.80757e-15
9.2741e-11
2.89084e-16
2.062e-15
7.41263e-11
-2.53095e-16
-1.30382e-15
5.8912e-11
7.67605e-17
9.58001e-17
4.66093e-11
3.9489e-16
-1.17094e-16
2.22687e-10
3.38465e-15
2.07746e-14
1.88218e-10
-2.11007e-15
-2.0189e-14
1.56579e-10
1.95886e-15
1.81066e-14
1.28551e-10
-1.04589e-15
-1.63898e-14
1.04398e-10
4.98223e-16
6.36866e-15
8.40418e-11
-3.61505e-16
-5.29997e-15
6.7173e-11
9.36747e-17
7.8197e-16
5.33859e-11
1.13079e-17
-4.60352e-16
4.22373e-11
3.25351e-16
-7.67395e-17
2.33861e-10
2.12689e-15
1.56718e-14
2.01399e-10
-8.74124e-16
-1.43557e-14
1.70222e-10
8.92336e-16
1.25525e-14
1.41611e-10
-1.12985e-16
-1.02132e-14
1.16261e-10
1.82404e-16
3.93731e-15
9.44173e-11
-9.87287e-17
-3.06557e-15
7.6007e-11
5.11082e-17
4.41333e-16
6.0751e-11
3.38473e-17
-3.8565e-16
4.8282e-11
1.15911e-16
-7.00529e-19
3.81992e-11
2.2641e-16
-5.36823e-17
2.39884e-10
1.92458e-15
1.40358e-14
2.11124e-10
-1.07048e-15
-1.39273e-14
1.81815e-10
1.09258e-15
1.34953e-14
1.53672e-10
-4.83383e-16
-1.26736e-14
1.27841e-10
3.14182e-16
5.77196e-15
1.04957e-10
-1.93101e-16
-5.44354e-15
8.52366e-11
6.55188e-17
1.08729e-15
6.86165e-11
1.80534e-17
-1.08616e-15
5.48439e-11
9.37498e-17
1.32878e-17
4.35873e-11
1.44324e-16
-3.37743e-17
3.44849e-11
1.09375e-16
-2.88459e-17
2.3969e-10
9.60056e-16
1.1207e-14
2.16211e-10
-3.99852e-16
-1.1213e-14
1.90285e-10
3.03153e-16
1.08933e-14
1.63872e-10
1.6867e-16
-9.87922e-15
1.38504e-10
-5.51277e-17
4.39776e-15
1.15224e-10
1.54102e-16
-3.90696e-15
9.45976e-11
-2.08837e-17
7.19511e-16
7.68241e-11
7.23323e-17
-7.58121e-16
6.18443e-11
5.47174e-17
-1.44882e-18
4.9431e-11
9.0178e-17
-4.68218e-17
3.92853e-11
1.27979e-16
-1.18971e-17
3.10812e-11
1.76107e-16
-2.07852e-16
9.27609e-11
2.4804e-16
-3.14971e-16
1.08899e-10
1.15507e-15
9.20179e-15
8.61579e-11
3.2162e-16
-4.72108e-16
1.26753e-10
1.29456e-15
3.28439e-15
1.00738e-10
-7.46857e-16
-1.22302e-15
7.97007e-11
4.04497e-16
-3.93126e-16
1.46148e-10
2.22037e-15
2.59666e-14
1.16814e-10
-1.24156e-15
-1.67378e-14
9.28383e-11
8.70349e-16
6.88924e-15
7.3451e-11
4.64393e-16
-3.64291e-16
1.6673e-10
2.00555e-15
9.07857e-15
1.34221e-10
-1.04709e-15
-5.53209e-15
1.0728e-10
9.45464e-16
3.10152e-15
8.52614e-11
-5.85948e-16
-1.10042e-15
6.74561e-11
5.14429e-16
-3.16253e-16
1.87958e-10
3.5661e-15
3.23429e-14
1.52644e-10
-2.06149e-15
-2.71349e-14
1.2288e-10
1.59171e-15
1.88409e-14
9.82162e-11
-9.23534e-16
-1.21723e-14
7.80574e-11
3.3839e-16
2.553e-15
6.17566e-11
5.38126e-16
-2.3449e-16
2.08977e-10
2.61503e-15
1.52943e-14
1.7157e-10
-1.29528e-15
-1.10386e-14
1.39334e-10
1.27531e-15
7.68172e-15
1.12166e-10
-6.70157e-16
-4.82436e-15
8.96523e-11
3.18329e-16
1.30067e-15
7.12514e-11
-3.14798e-16
-5.07057e-16
5.63719e-11
5.40597e-16
-2.07516e-16
2.28689e-10
4.40617e-15
2.79899e-14
1.9025e-10
-2.75596e-15
-2.64709e-14
1.56193e-10
2.30082e-15
2.22122e-14
1.26848e-10
-1.30665e-15
-1.8867e-14
1.02114e-10
5.24119e-16
6.5937e-15
8.16176e-11
-4.35564e-16
-4.44371e-15
6.48658e-11
1.0108e-16
4.89837e-16
5.13198e-11
5.14801e-16
-1.34792e-16
2.45737e-10
3.04892e-15
1.81404e-14
2.077e-10
-1.42087e-15
-1.53781e-14
1.72787e-10
1.42194e-15
1.23223e-14
1.41858e-10
-5.32373e-16
-9.23869e-15
1.15204e-10
3.36963e-16
3.13467e-15
9.2741e-11
-2.93717e-16
-2.23659e-15
7.41261e-11
8.9088e-17
2.5225e-16
5.89119e-11
2.52304e-17
-1.58792e-16
4.66093e-11
4.53908e-16
-1.05421e-16
2.58582e-10
3.88653e-15
1.99148e-14
2.22689e-10
-2.43448e-15
-1.98059e-14
1.88216e-10
2.33891e-15
1.86217e-14
1.5658e-10
-1.29139e-15
-1.7486e-14
1.28551e-10
6.33562e-16
7.43191e-15
1.04398e-10
-4.71111e-16
-6.64637e-15
8.40416e-11
1.22092e-16
1.2121e-15
6.7173e-11
7.99528e-18
-9.65843e-16
5.33859e-11
1.63537e-16
1.25281e-17
4.22372e-11
3.65217e-16
-6.29726e-17
2.65721e-10
2.73064e-15
1.53038e-14
2.33863e-10
-1.27972e-15
-1.46988e-14
2.01397e-10
1.23547e-15
1.35654e-14
1.70223e-10
-2.42647e-16
-1.17138e-14
1.4161e-10
2.38942e-16
4.84323e-15
1.16261e-10
-1.17339e-16
-4.06e-15
9.44171e-11
6.00669e-17
6.58404e-16
7.60069e-11
4.73524e-17
-6.51482e-16
6.07509e-11
1.45882e-16
-4.73983e-18
4.82819e-11
2.27226e-16
-2.15544e-17
3.81991e-11
2.48079e-16
-3.51539e-17
2.65937e-10
2.28028e-15
1.28472e-14
2.39886e-10
-1.30177e-15
-1.31433e-14
2.11122e-10
1.30392e-15
1.31259e-14
1.81816e-10
-5.84353e-16
-1.26512e-14
1.53671e-10
3.78892e-16
5.97805e-15
1.27841e-10
-2.44857e-16
-5.86981e-15
1.04956e-10
8.39979e-17
1.25344e-15
8.52366e-11
1.89661e-17
-1.37036e-15
6.86165e-11
1.18007e-16
1.74952e-17
5.48438e-11
1.82048e-16
-7.68678e-17
4.35872e-11
2.61805e-16
-4.0726e-17
3.44847e-11
1.16332e-16
-8.83786e-18
2.58546e-10
1.22045e-15
9.95152e-15
2.39693e-10
-6.47644e-16
-1.04288e-14
2.16209e-10
5.50292e-16
1.06155e-14
1.90287e-10
-1.97647e-17
-1.01266e-14
1.63871e-10
2.57357e-17
4.73248e-15
1.38505e-10
1.08854e-16
-4.44656e-15
1.15223e-10
-1.19761e-17
8.80132e-16
9.45976e-11
8.14196e-17
-9.87186e-16
7.6824e-11
6.86109e-17
-8.69042e-19
6.18442e-11
1.13353e-16
-7.60525e-17
4.94309e-11
1.62135e-16
-3.26793e-17
3.92852e-11
2.13001e-16
8.1329e-18
3.1081e-11
1.62712e-16
-1.79878e-16
9.94343e-11
2.23775e-16
-4.63624e-16
1.17245e-10
9.23543e-16
1.16744e-15
9.27613e-11
3.14767e-16
-5.09271e-16
1.37022e-10
1.55342e-15
1.94691e-14
1.08899e-10
-8.05714e-16
-9.41761e-15
8.61578e-11
4.03217e-16
-6.38139e-16
1.58584e-10
1.53258e-15
5.69818e-15
1.26754e-10
-8.39887e-16
-3.26247e-15
1.00738e-10
7.0468e-16
1.17359e-15
7.97008e-11
5.03497e-16
-5.02054e-16
1.81548e-10
2.87196e-15
3.31527e-14
1.46149e-10
-1.64321e-15
-2.66126e-14
1.16814e-10
1.1782e-15
1.44876e-14
9.28385e-11
-6.7553e-16
-7.11166e-15
7.34508e-11
5.70551e-16
-4.2374e-16
2.05304e-10
2.36692e-15
1.2421e-14
1.66731e-10
-1.20445e-15
-8.52433e-15
1.3422e-10
1.11507e-15
5.32933e-15
1.0728e-10
-6.56342e-16
-2.96144e-15
8.52612e-11
3.03151e-16
5.54426e-16
6.7456e-11
6.23641e-16
-3.54738e-16
2.28939e-10
4.43601e-15
3.49284e-14
1.87959e-10
-2.6605e-15
-3.21254e-14
1.52644e-10
2.06319e-15
2.39243e-14
1.22881e-10
-1.22782e-15
-1.92707e-14
9.82159e-11
4.58638e-16
5.32676e-15
7.80574e-11
-3.73024e-16
-2.65854e-15
6.17565e-11
6.43656e-16
-2.44931e-16
2.51202e-10
3.20917e-15
1.82454e-14
2.08979e-10
-1.55993e-15
-1.42785e-14
1.7157e-10
1.50518e-15
1.04627e-14
1.39335e-10
-7.65665e-16
-7.39647e-15
1.12166e-10
3.7058e-16
2.22928e-15
8.96523e-11
-3.63043e-16
-1.37229e-15
7.12513e-11
1.02612e-16
9.57321e-17
5.63718e-11
6.34114e-16
-2.04107e-16
2.70572e-10
5.16518e-15
2.75151e-14
2.28691e-10
-3.32401e-15
-2.71685e-14
1.90249e-10
2.84951e-15
2.38758e-14
1.56194e-10
-1.68997e-15
-2.21441e-14
1.26847e-10
6.80491e-16
8.31595e-15
1.02114e-10
-5.72484e-16
-6.99479e-15
8.16175e-11
1.34379e-16
9.97682e-16
6.48657e-11
2.32969e-17
-5.98008e-16
5.13197e-11
5.92158e-16
-1.24896e-16
2.85348e-10
3.84061e-15
1.89788e-14
2.45739e-10
-1.88915e-15
-1.70949e-14
2.07699e-10
1.78745e-15
1.44385e-14
1.72788e-10
-6.64474e-16
-1.17125e-14
1.41857e-10
3.9544e-16
4.24206e-15
1.15204e-10
-3.43161e-16
-3.38146e-15
9.27408e-11
1.05205e-16
4.32248e-16
7.41261e-11
4.0171e-17
-4.25875e-16
5.89119e-11
2.14482e-16
-3.60998e-18
4.66092e-11
5.10208e-16
-8.63479e-17
2.9381e-10
4.41509e-15
1.85565e-14
2.58584e-10
-2.77161e-15
-1.88901e-14
2.22687e-10
2.70992e-15
1.83537e-14
1.88218e-10
-1.54196e-15
-1.79143e-14
1.56579e-10
7.75599e-16
7.96667e-15
1.28551e-10
-6.03618e-16
-7.75947e-15
1.04398e-10
1.56427e-16
1.50605e-15
8.40416e-11
5.18171e-18
-1.51309e-15
6.71729e-11
2.06637e-16
1.90201e-17
5.33858e-11
3.18163e-16
-4.4767e-17
4.22371e-11
3.99757e-16
-4.30052e-17
2.9458e-10
3.35696e-15
1.42491e-14
2.65723e-10
-1.7589e-15
-1.43267e-14
2.33861e-10
1.66223e-15
1.38672e-14
2.01399e-10
-4.77177e-16
-1.26949e-14
1.70222e-10
3.28157e-16
5.53529e-15
1.4161e-10
-1.65361e-16
-4.99591e-15
1.16261e-10
7.19041e-17
8.7703e-16
9.4417e-11
6.2643e-17
-9.60145e-16
7.60068e-11
1.8295e-16
-9.36261e-18
6.07508e-11
2.87765e-16
-5.79422e-17
4.82818e-11
4.1301e-16
-1.40473e-17
3.81989e-11
2.64438e-16
-1.22502e-17
2.86858e-10
2.65073e-15
1.12858e-14
2.6594e-10
-1.57643e-15
-1.19793e-14
2.39884e-10
1.55526e-15
1.23919e-14
2.11124e-10
-7.19892e-16
-1.22932e-14
1.81815e-10
4.46346e-16
5.97455e-15
1.53671e-10
-3.03466e-16
-6.09159e-15
1.2784e-10
1.03102e-16
1.33879e-15
1.04956e-10
1.93208e-17
-1.60538e-15
8.52365e-11
1.4758e-16
1.81237e-17
6.86163e-11
2.28768e-16
-1.21673e-16
5.48437e-11
3.30195e-16
-8.36327e-17
4.3587e-11
4.5484e-16
3.57283e-17
3.44845e-11
1.20336e-16
1.41563e-17
2.70841e-10
1.43669e-15
8.34066e-15
2.58548e-10
-8.73472e-16
-9.21635e-15
2.39691e-10
7.92106e-16
9.85679e-15
2.16211e-10
-2.28671e-16
-9.8952e-15
1.90285e-10
1.21669e-16
4.82538e-15
1.63871e-10
3.07297e-17
-4.80558e-15
1.38504e-10
3.27398e-18
9.9787e-16
1.15223e-10
8.40671e-17
-1.2072e-15
9.45974e-11
8.54313e-17
-3.07011e-19
7.68239e-11
1.41368e-16
-1.10834e-16
6.18441e-11
2.04028e-16
-5.55592e-17
4.94307e-11
2.68832e-16
2.01986e-17
3.92849e-11
3.63737e-16
-4.47586e-19
3.10807e-11
1.57452e-16
-1.96693e-16
1.0609e-10
2.08391e-16
-4.09433e-16
1.2568e-10
9.19252e-16
1.05961e-14
9.94347e-11
2.8331e-16
-7.4497e-16
1.47524e-10
1.05746e-15
3.1549e-15
1.17246e-10
-6.06091e-16
-1.268e-15
9.27611e-11
3.96739e-16
-7.06301e-16
1.71432e-10
2.03612e-15
3.10671e-14
1.37023e-10
-1.11762e-15
-1.98748e-14
1.08899e-10
7.51798e-16
8.29096e-15
8.61579e-11
5.00997e-16
-7.9467e-16
1.96995e-10
1.79331e-15
8.76409e-15
1.58585e-10
-9.62061e-16
-5.66018e-15
1.26753e-10
8.00125e-16
3.08658e-15
1.00738e-10
-4.99412e-16
-1.09453e-15
7.97006e-11
6.1911e-16
-5.95598e-16
2.23549e-10
3.67923e-15
3.9587e-14
1.81549e-10
-2.15966e-15
-3.39197e-14
1.46148e-10
1.55019e-15
2.30323e-14
1.16814e-10
-9.38399e-16
-1.49529e-14
9.28382e-11
3.39385e-16
3.1093e-15
7.34508e-11
6.91947e-16
-4.68631e-16
2.50067e-10
2.82639e-15
1.60745e-14
2.05305e-10
-1.37623e-15
-1.17767e-14
1.66731e-10
1.30328e-15
8.1034e-15
1.34221e-10
-7.51051e-16
-5.12977e-15
1.0728e-10
3.45178e-16
1.43142e-15
8.52611e-11
-3.19212e-16
-5.24794e-16
6.74559e-11
7.43967e-16
-3.73314e-16
2.75197e-10
5.38248e-15
3.61991e-14
2.28941e-10
-3.3346e-15
-3.45772e-14
1.87958e-10
2.64398e-15
2.83829e-14
1.52644e-10
-1.61541e-15
-2.44151e-14
1.2288e-10
6.02994e-16
8.42316e-15
9.82159e-11
-5.05177e-16
-5.57305e-15
7.80573e-11
1.24314e-16
6.07242e-16
6.17565e-11
7.56091e-16
-2.44821e-16
2.97208e-10
3.99911e-15
2.06562e-14
2.51204e-10
-1.93796e-15
-1.71593e-14
2.08978e-10
1.81834e-15
1.34192e-14
1.7157e-10
-8.74756e-16
-1.01268e-14
1.39334e-10
4.30004e-16
3.39791e-15
1.12166e-10
-4.26368e-16
-2.36297e-15
8.96521e-11
1.20486e-16
2.50578e-16
7.12512e-11
5.05733e-17
-1.77953e-16
5.63718e-11
7.28944e-16
-1.87283e-16
3.14186e-10
5.92571e-15
2.62493e-14
2.70574e-10
-3.87093e-15
-2.65704e-14
2.28689e-10
3.43494e-15
2.4602e-14
1.9025e-10
-2.10724e-15
-2.37086e-14
1.56193e-10
8.71774e-16
9.78079e-15
1.26847e-10
-7.42897e-16
-8.82783e-15
1.02113e-10
1.74232e-16
1.55906e-15
8.16174e-11
2.20987e-17
-1.26355e-15
6.48656e-11
2.71436e-16
1.30153e-17
5.13196e-11
6.65445e-16
-1.05984e-16
3.24223e-10
4.74057e-15
1.88708e-14
2.85351e-10
-2.4858e-15
-1.78927e-14
2.45738e-10
2.29325e-15
1.60022e-14
2.077e-10
-8.81986e-16
-1.37657e-14
1.72787e-10
4.86542e-16
5.37411e-15
1.41857e-10
-4.03883e-16
-4.55462e-15
1.15204e-10
1.24569e-16
6.66711e-16
9.27408e-11
5.75807e-17
-7.2307e-16
7.4126e-11
2.7009e-16
-1.22187e-17
5.89118e-11
4.20661e-16
-2.56348e-17
4.66091e-11
5.59328e-16
-6.05548e-17
3.2572e-10
4.983e-15
1.67826e-14
2.93813e-10
-3.13376e-15
-1.75166e-14
2.58582e-10
3.09354e-15
1.75651e-14
2.22689e-10
-1.77452e-15
-1.75834e-14
1.88216e-10
9.21943e-16
8.18958e-15
1.5658e-10
-7.43842e-16
-8.3216e-15
1.28551e-10
1.97416e-16
1.74519e-15
1.04398e-10
1.82449e-18
-1.91953e-15
8.40415e-11
2.59774e-16
2.54952e-17
6.71728e-11
4.01834e-16
-1.02374e-16
5.33856e-11
5.78406e-16
-5.4804e-17
4.22369e-11
4.26039e-16
-1.72782e-17
3.17754e-10
3.95926e-15
1.26338e-14
2.94583e-10
-2.26585e-15
-1.33007e-14
2.65721e-10
2.15142e-15
1.34978e-14
2.33863e-10
-7.94728e-16
-1.30085e-14
2.01397e-10
4.628e-16
5.97904e-15
1.70223e-10
-2.48858e-16
-5.71217e-15
1.4161e-10
9.15629e-17
1.08425e-15
1.16261e-10
7.94506e-17
-1.2613e-15
9.44169e-11
2.28238e-16
-1.06947e-17
7.60067e-11
3.62583e-16
-9.59876e-17
6.07506e-11
5.22689e-16
-3.99313e-17
4.82816e-11
7.19229e-16
1.02068e-17
3.81986e-11
2.74148e-16
1.38751e-17
3.00498e-10
2.99581e-15
9.41612e-15
2.8686e-10
-1.87618e-15
-1.04687e-14
2.65937e-10
1.84216e-15
1.12922e-14
2.39886e-10
-8.98845e-16
-1.16119e-14
2.11122e-10
5.27063e-16
5.801e-15
1.81816e-10
-3.68111e-16
-6.10422e-15
1.53671e-10
1.23633e-16
1.3764e-15
1.2784e-10
2.15927e-17
-1.75177e-15
1.04956e-10
1.83146e-16
1.69812e-17
8.52363e-11
2.85906e-16
-1.61958e-16
6.86162e-11
4.14888e-16
-1.2991e-16
5.48435e-11
5.75541e-16
6.83785e-17
4.35867e-11
7.5678e-16
-3.1591e-17
3.44841e-11
1.20965e-16
3.86653e-17
2.75112e-10
1.60693e-15
6.51777e-15
2.70843e-10
-1.06238e-15
-7.66308e-15
2.58546e-10
1.01194e-15
8.69464e-15
2.39692e-10
-4.36838e-16
-9.21359e-15
2.16209e-10
2.25392e-16
4.68927e-15
1.90286e-10
-6.46816e-17
-4.92039e-15
1.63871e-10
2.62222e-17
1.07224e-15
1.38504e-10
8.09303e-17
-1.37042e-15
1.15223e-10
1.0552e-16
9.03632e-19
9.45973e-11
1.74859e-16
-1.41515e-16
7.68237e-11
2.5467e-16
-8.18699e-17
6.18438e-11
3.38166e-16
3.44027e-17
4.94303e-11
4.60076e-16
-8.07822e-18
3.92844e-11
5.6652e-16
-7.67438e-17
3.10802e-11
1.80679e-16
-1.54352e-16
1.12627e-10
2.01066e-16
-4.38088e-16
1.34092e-10
6.59643e-16
1.09099e-15
1.0609e-10
2.65516e-16
-6.62541e-16
1.58137e-10
1.26107e-15
2.2478e-14
1.25681e-10
-6.33221e-16
-1.0905e-14
9.94346e-11
3.56282e-16
-1.00807e-15
1.84571e-10
1.22832e-15
5.48549e-15
1.47525e-10
-6.56168e-16
-3.32652e-15
1.17245e-10
5.60334e-16
1.21447e-15
9.27612e-11
4.95441e-16
-8.96579e-16
2.12955e-10
2.65705e-15
3.98286e-14
1.71433e-10
-1.49426e-15
-3.1701e-14
1.37023e-10
1.03574e-15
1.75211e-14
1.08899e-10
-5.05497e-16
-8.34867e-15
8.61577e-11
6.15973e-16
-9.11201e-16
2.4257e-10
2.08002e-15
1.21011e-14
1.96996e-10
-1.08089e-15
-8.72477e-15
1.58584e-10
9.24366e-16
5.31435e-15
1.26754e-10
-5.40818e-16
-2.92709e-15
1.00738e-10
2.76322e-16
5.66081e-16
7.97005e-11
7.50269e-16
-6.68388e-16
2.7229e-10
4.60834e-15
4.29961e-14
2.2355e-10
-2.80573e-15
-4.04636e-14
1.81548e-10
2.02656e-15
2.94174e-14
1.46149e-10
-1.25479e-15
-2.37805e-14
1.16814e-10
4.63138e-16
6.52912e-15
9.28382e-11
-3.39532e-16
-3.21593e-15
7.34507e-11
8.26425e-16
-4.88269e-16
3.00594e-10
3.41607e-15
1.94471e-14
2.50069e-10
-1.61669e-15
-1.53848e-14
2.05304e-10
1.51385e-15
1.10743e-14
1.66731e-10
-8.47456e-16
-7.86719e-15
1.3422e-10
3.999e-16
2.44465e-15
1.0728e-10
-3.64767e-16
-1.40716e-15
8.5261e-11
1.25194e-16
1.07467e-16
6.74559e-11
8.71466e-16
-3.73583e-16
3.25597e-10
6.3315e-15
3.55946e-14
2.75199e-10
-4.05749e-15
-3.57405e-14
2.28939e-10
3.29996e-15
3.06574e-14
1.87959e-10
-2.09646e-15
-2.89189e-14
1.52644e-10
7.85938e-16
1.0697e-14
1.2288e-10
-6.64157e-16
-8.82613e-15
9.82157e-11
1.64427e-16
1.24967e-15
7.80572e-11
6.25881e-17
-7.48789e-16
6.17564e-11
8.69794e-16
-2.29358e-16
3.45115e-10
4.95728e-15
2.20726e-14
2.9721e-10
-2.49501e-15
-1.95418e-14
2.51202e-10
2.23908e-15
1.60152e-14
2.08979e-10
-1.04884e-15
-1.30462e-14
1.71569e-10
4.99086e-16
4.62928e-15
1.39334e-10
-4.98852e-16
-3.60075e-15
1.12166e-10
1.43337e-16
4.31063e-16
8.9652e-11
7.37298e-17
-4.71522e-16
7.12511e-11
3.31677e-16
-8.75386e-18
5.63717e-11
8.19278e-16
-1.59154e-16
3.5699e-10
6.67416e-15
2.43094e-14
3.14189e-10
-4.40588e-15
-2.52294e-14
2.70572e-10
4.01015e-15
2.41668e-14
2.28691e-10
-2.54388e-15
-2.43459e-14
1.90249e-10
1.08218e-15
1.05141e-14
1.56194e-10
-9.5079e-16
-1.03827e-14
1.26847e-10
2.23567e-16
1.95209e-15
1.02113e-10
2.19675e-17
-1.99357e-15
8.16173e-11
3.42825e-16
1.92084e-17
6.48655e-11
5.31743e-16
-5.80551e-17
5.13195e-11
7.28996e-16
-7.81892e-17
3.59436e-10
5.66783e-15
1.78155e-14
3.24226e-10
-3.19077e-15
-1.77764e-14
2.85348e-10
2.91228e-15
1.67108e-14
2.45739e-10
-1.23229e-15
-1.52941e-14
2.07699e-10
6.18346e-16
6.30947e-15
1.72787e-10
-4.98937e-16
-5.73926e-15
1.41857e-10
1.47939e-16
9.127e-16
1.15204e-10
7.89887e-17
-1.08145e-15
9.27407e-11
3.38788e-16
-2.20155e-17
7.41259e-11
5.32544e-16
-6.8282e-17
5.89116e-11
7.63918e-16
-1.27938e-17
4.66089e-11
5.96871e-16
-2.89503e-17
3.51343e-10
5.56058e-15
1.46364e-14
3.25723e-10
-3.54431e-15
-1.57654e-14
2.93811e-10
3.49568e-15
1.63253e-14
2.58584e-10
-2.01886e-15
-1.678e-14
2.22687e-10
1.06071e-15
8.06754e-15
1.88217e-10
-8.90375e-16
-8.55644e-15
1.56579e-10
2.41108e-16
1.85506e-15
1.2855e-10
-2.39812e-18
-2.25742e-15
1.04398e-10
3.24659e-16
2.69456e-17
8.40413e-11
5.05464e-16
-1.62671e-16
6.71726e-11
7.30054e-16
-1.13473e-16
5.33854e-11
1.0127e-15
4.96676e-17
4.22366e-11
4.41659e-16
1.24773e-17
3.32863e-10
4.48765e-15
1.06004e-14
3.17757e-10
-2.76328e-15
-1.17429e-14
2.9458e-10
2.65837e-15
1.25121e-14
2.65723e-10
-1.1807e-15
-1.26896e-14
2.33861e-10
6.3167e-16
6.10626e-15
2.01398e-10
-3.82699e-16
-6.1764e-15
1.70222e-10
1.20189e-16
1.24225e-15
1.4161e-10
9.24816e-17
-1.54536e-15
1.1626e-10
2.82843e-16
-1.15027e-17
9.44167e-11
4.54061e-16
-1.40044e-16
7.60065e-11
6.58123e-16
-6.94918e-17
6.07504e-11
9.08451e-16
2.61155e-17
4.82812e-11
1.19478e-15
2.47888e-18
3.81982e-11
2.76215e-16
4.18831e-17
3.05238e-10
3.27852e-15
7.34296e-15
3.00501e-10
-2.16748e-15
-8.67148e-15
2.86858e-10
2.14292e-15
9.85587e-15
2.6594e-10
-1.12032e-15
-1.05945e-14
2.39884e-10
6.23555e-16
5.46421e-15
2.11123e-10
-4.50388e-16
-5.94529e-15
1.81815e-10
1.44825e-16
1.36526e-15
1.53671e-10
2.44043e-17
-1.83336e-15
1.2784e-10
2.25021e-16
1.45205e-17
1.04956e-10
3.54713e-16
-1.9576e-16
8.52361e-11
5.18582e-16
-1.60211e-16
6.86159e-11
7.24694e-16
1.04376e-16
5.48431e-11
9.5559e-16
-6.1837e-17
4.35862e-11
1.2035e-15
-5.08838e-17
3.44836e-11
1.18359e-16
6.2928e-17
2.70841e-10
1.71171e-15
4.60641e-15
2.75115e-10
-1.22092e-15