/*--------------------------------*- C++ -*----------------------------------*\
  =========                 |
  \\      /  F ield         | OpenFOAM: The Open Source CFD Toolbox
   \\    /   O peration     | Website:  https://openfoam.org
    \\  /    A nd           | Version:  7
     \\/     M anipulation  |
\*---------------------------------------------------------------------------*/
FoamFile
{
    version     2.0;
    format      ascii;
    class       volVectorField;
    location    "300";
    object      U;
}
// * * * * * * * * * * * * * * * * * * * * * * * * * * * * * * * * * * * * * //

dimensions      [0 1 -1 0 0 0 0];

internalField   nonuniform List<vector> 
43305
(
(0.625001 2.45304e-09 -2.09688e-10)
(0.625001 7.35411e-09 -2.42241e-10)
(0.625001 2.45759e-09 -5.75563e-10)
(0.625007 -1.2064e-07 1.7357e-08)
(0.625001 1.37872e-08 -2.25766e-10)
(0.625001 7.38251e-09 -6.71547e-10)
(0.625007 4.19027e-08 4.9866e-08)
(0.625001 2.45816e-09 -8.41001e-10)
(0.625007 -1.15542e-07 6.10837e-08)
(0.625006 1.32382e-07 -1.68816e-08)
(0.625001 2.01428e-08 -2.84722e-10)
(0.625001 1.38295e-08 -6.21342e-10)
(0.625007 7.18801e-08 1.63819e-08)
(0.625001 7.40835e-09 -9.95801e-10)
(0.625007 4.19907e-08 1.53637e-07)
(0.625006 -1.86292e-08 -5.07806e-08)
(0.625001 2.45135e-09 -1.1532e-09)
(0.625006 -1.06381e-07 1.20365e-07)
(0.625006 1.27038e-07 -5.9124e-08)
(0.625006 -1.17216e-07 1.73956e-08)
(0.625001 2.70682e-08 -2.6731e-10)
(0.625001 2.02065e-08 -8.12935e-10)
(0.625007 1.92049e-07 5.50947e-08)
(0.625001 1.38652e-08 -9.06325e-10)
(0.625007 7.13054e-08 5.89903e-08)
(0.625006 -2.66206e-08 -1.59401e-08)
(0.625001 7.42768e-09 -1.36773e-09)
(0.625007 4.25341e-08 2.5972e-07)
(0.625006 -1.88665e-08 -1.55563e-07)
(0.625006 3.63523e-08 4.88674e-08)
(0.625001 2.4365e-09 -1.49687e-09)
(0.625006 -9.10797e-08 1.86842e-07)
(0.625006 1.1747e-07 -1.16103e-07)
(0.625006 -1.12286e-07 6.07218e-08)
(0.625006 1.3668e-07 -1.66388e-08)
(0.625001 3.40955e-08 -3.39205e-10)
(0.625001 2.71571e-08 -7.6497e-10)
(0.625007 2.16145e-07 1.37624e-08)
(0.625001 2.02608e-08 -1.25966e-09)
(0.625007 1.91434e-07 1.71018e-07)
(0.625006 -1.34338e-07 -5.67062e-08)
(0.625001 1.38846e-08 -1.23758e-09)
(0.625006 7.1172e-08 1.19926e-07)
(0.625006 -2.6336e-08 -5.71445e-08)
(0.625006 5.99689e-08 1.64116e-08)
(0.625001 7.43588e-09 -1.74794e-09)
(0.625006 4.40331e-08 3.5425e-07)
(0.625006 -1.95814e-08 -2.61116e-07)
(0.625006 3.64887e-08 1.50292e-07)
(0.625006 -4.676e-09 -5.05384e-08)
(0.625001 2.41276e-09 -1.82447e-09)
(0.625006 -7.23339e-08 2.58107e-07)
(0.625006 1.01527e-07 -1.80482e-07)
(0.625006 -1.03426e-07 1.18731e-07)
(0.625006 1.31339e-07 -5.83401e-08)
(0.625004 -6.00512e-08 9.22647e-09)
(0.625001 4.12062e-08 -3.53296e-10)
(0.625001 3.42118e-08 -1.0065e-09)
(0.625007 3.09573e-07 5.81975e-08)
(0.625001 2.72371e-08 -1.18315e-09)
(0.625007 2.14751e-07 5.01026e-08)
(0.625006 -1.41088e-07 -1.3241e-08)
(0.625001 2.02918e-08 -1.75281e-09)
(0.625007 1.90949e-07 2.92574e-07)
(0.625006 -1.34073e-07 -1.7517e-07)
(0.625006 1.68936e-07 5.37773e-08)
(0.625001 1.388e-08 -1.60427e-09)
(0.625006 7.20062e-08 1.89129e-07)
(0.625006 -2.65836e-08 -1.15883e-07)
(0.625006 5.94979e-08 5.85273e-08)
(0.625006 -3.18625e-09 -1.57992e-08)
(0.625001 7.43219e-09 -2.09804e-09)
(0.625006 4.6202e-08 4.20891e-07)
(0.625006 -2.12771e-08 -3.54563e-07)
(0.625006 3.70498e-08 2.53503e-07)
(0.625006 -4.98786e-09 -1.54798e-07)
(0.625004 1.84012e-08 2.5336e-08)
(0.625001 2.37815e-09 -2.06358e-09)
(0.625006 -5.07735e-08 3.25565e-07)
(0.625006 8.20083e-08 -2.50099e-07)
(0.625006 -8.86299e-08 1.83746e-07)
(0.625006 1.21768e-07 -1.14708e-07)
(0.625004 -5.74578e-08 3.1918e-08)
(0.625005 7.1704e-08 -9.7975e-09)
(0.625001 4.85478e-08 -4.28786e-10)
(0.625001 4.13555e-08 -1.05657e-09)
(0.625007 3.21803e-07 1.23071e-08)
(0.625001 3.43136e-08 -1.64314e-09)
(0.625007 3.08563e-07 1.81494e-07)
(0.625006 -2.2864e-07 -6.02975e-08)
(0.625001 2.72918e-08 -1.64783e-09)
(0.625006 2.13329e-07 1.03221e-07)
(0.625006 -1.40133e-07 -4.81055e-08)
(0.625006 1.841e-07 1.36899e-08)
(0.625001 2.02883e-08 -2.24076e-09)
(0.625006 1.90694e-07 4.02676e-07)
(0.625006 -1.33967e-07 -2.97927e-07)
(0.625006 1.68492e-07 1.66618e-07)
(0.625006 -1.02104e-07 -5.66797e-08)
(0.625001 1.38447e-08 -1.95866e-09)
(0.625006 7.44634e-08 2.63313e-07)
(0.625006 -2.79338e-08 -1.83099e-07)
(0.625006 5.94249e-08 1.17915e-07)
(0.625006 -3.03225e-09 -5.67121e-08)
(0.625004 2.70971e-08 8.54275e-09)
(0.625001 7.41262e-09 -2.34499e-09)
(0.625006 4.94379e-08 4.67145e-07)
(0.625006 -2.36529e-08 -4.19205e-07)
(0.625006 3.85029e-08 3.45562e-07)
(0.625006 -5.79955e-09 -2.59771e-07)
(0.625004 1.84166e-08 7.77159e-08)
(0.625005 -9.21219e-09 -2.79354e-08)
(0.625001 2.33273e-09 -2.21689e-09)
(0.625006 -3.02793e-08 3.83052e-07)
(0.625006 5.96136e-08 -3.16304e-07)
(0.625006 -7.05078e-08 2.53342e-07)
(0.625006 1.05817e-07 -1.78505e-07)
(0.625004 -5.28683e-08 6.18792e-08)
(0.625005 6.87667e-08 -3.43052e-08)
(0.625003 -1.7164e-08 2.59776e-09)
(0.625001 5.47484e-08 -5.35908e-10)
(0.625001 4.87282e-08 -1.32234e-09)
(0.625007 3.88725e-07 6.02435e-08)
(0.625001 4.14913e-08 -1.73496e-09)
(0.625006 3.19936e-07 4.44925e-08)
(0.625006 -2.23932e-07 -1.14325e-08)
(0.625001 3.43784e-08 -2.33972e-09)
(0.625006 3.07818e-07 3.13108e-07)
(0.625006 -2.28136e-07 -1.87317e-07)
(0.625006 2.62632e-07 5.64356e-08)
(0.625001 2.73053e-08 -2.13698e-09)
(0.625006 2.12128e-07 1.6544e-07)
(0.625006 -1.39196e-07 -9.9089e-08)
(0.625006 1.8295e-07 4.9316e-08)
(0.625006 -1.02151e-07 -1.34395e-08)
(0.625001 2.02428e-08 -2.67942e-09)
(0.625006 1.90469e-07 4.81737e-07)
(0.625006 -1.34101e-07 -4.08417e-07)
(0.625006 1.68137e-07 2.84384e-07)
(0.625006 -1.02042e-07 -1.75137e-07)
(0.625004 7.83667e-08 2.76657e-08)
(0.625001 1.37773e-08 -2.23342e-09)
(0.625006 7.92945e-08 3.34757e-07)
(0.625006 -3.10324e-08 -2.55755e-07)
(0.625006 6.02334e-08 1.85351e-07)
(0.625006 -3.45493e-09 -1.15159e-07)
(0.625004 2.67816e-08 3.02032e-08)
(0.625005 -1.48918e-08 -9.41196e-09)
(0.625001 7.37772e-09 -2.48931e-09)
(0.625006 5.33554e-08 4.91032e-07)
(0.625006 -2.71059e-08 -4.63145e-07)
(0.625006 4.05628e-08 4.10561e-07)
(0.625006 -7.62127e-09 -3.52673e-07)
(0.625004 1.86144e-08 1.30713e-07)
(0.625005 -9.35945e-09 -8.594e-08)
(0.625003 9.30063e-09 7.50765e-09)
(0.625001 2.27885e-09 -2.23301e-09)
(0.625006 -1.18461e-08 4.23073e-07)
(0.625006 3.83517e-08 -3.72539e-07)
(0.625006 -4.96878e-08 3.19056e-07)
(0.625006 8.62794e-08 -2.47648e-07)
(0.625004 -4.52637e-08 9.54249e-08)
(0.625005 6.35689e-08 -6.7297e-08)
(0.625003 -1.62961e-08 8.86471e-09)
(0.625003 2.80444e-08 -3.85607e-09)
(0.625001 6.0873e-08 -6.1245e-10)
(0.625001 5.49749e-08 -1.67053e-09)
(0.625006 3.78954e-07 1.07912e-08)
(0.625001 4.88844e-08 -2.26374e-09)
(0.625007 3.87291e-07 1.88563e-07)
(0.625006 -2.83244e-07 -6.30003e-08)
(0.625001 4.15887e-08 -2.46755e-09)
(0.625006 3.17904e-07 9.12899e-08)
(0.625006 -2.22693e-07 -4.14848e-08)
(0.625006 2.615e-07 1.20428e-08)
(0.625001 3.43861e-08 -3.03667e-09)
(0.625006 3.0756e-07 4.34155e-07)
(0.625006 -2.27891e-07 -3.21644e-07)
(0.625006 2.61939e-07 1.75668e-07)
(0.625006 -1.86191e-07 -6.07173e-08)
(0.625001 2.72666e-08 -2.59067e-09)
(0.625006 2.11622e-07 2.35093e-07)
(0.625006 -1.38525e-07 -1.59451e-07)
(0.625006 1.81722e-07 1.00634e-07)
(0.625006 -1.01455e-07 -4.88188e-08)
(0.625004 7.94489e-08 6.95483e-09)
(0.625001 2.01549e-08 -2.9887e-09)
(0.625006 1.90173e-07 5.35201e-07)
(0.625006 -1.3427e-07 -4.86271e-07)
(0.625006 1.67933e-07 3.911e-07)
(0.625006 -1.02198e-07 -2.97964e-07)
(0.625004 7.79927e-08 8.54711e-08)
(0.625005 -7.56794e-08 -3.13477e-08)
(0.625001 1.36741e-08 -2.42062e-09)
(0.625006 8.64256e-08 3.95804e-07)
(0.625006 -3.66584e-08 -3.26084e-07)
(0.625006 6.25351e-08 2.57604e-07)
(0.625006 -5.0408e-09 -1.82112e-07)
(0.625004 2.66349e-08 6.03799e-08)
(0.625005 -1.47775e-08 -3.36722e-08)
(0.625003 1.28661e-08 2.33697e-09)
(0.625001 7.32471e-09 -2.46794e-09)
(0.625006 5.82907e-08 4.99099e-07)
(0.625006 -3.12505e-08 -4.84449e-07)
(0.625006 4.35998e-08 4.55631e-07)
(0.625006 -1.01635e-08 -4.16901e-07)
(0.625004 1.92147e-08 1.77992e-07)
(0.625005 -9.79438e-09 -1.45064e-07)
(0.625003 9.27035e-09 2.27835e-08)
(0.625003 8.7851e-09 -9.80336e-09)
(0.625001 2.22899e-09 -2.10458e-09)
(0.625006 2.38119e-09 4.44118e-07)
(0.625006 1.9237e-08 -4.11647e-07)
(0.625006 -2.99202e-08 3.74688e-07)
(0.625006 6.38528e-08 -3.13535e-07)
(0.625004 -3.5989e-08 1.31285e-07)
(0.625005 5.49573e-08 -1.04366e-07)
(0.625003 -1.48342e-08 1.69774e-08)
(0.625003 2.69864e-08 -1.34696e-08)
(0.625002 9.66292e-09 5.05256e-11)
(0.625001 6.23298e-08 -9.50317e-10)
(0.625001 6.11384e-08 -1.95899e-09)
(0.625007 4.09975e-07 6.07056e-08)
(0.625001 5.51771e-08 -2.8869e-09)
(0.625006 3.76779e-07 3.8686e-08)
(0.625006 -2.5955e-07 -1.02826e-08)
(0.625001 4.89812e-08 -3.29094e-09)
(0.625006 3.86094e-07 3.27451e-07)
(0.625006 -2.82563e-07 -1.96585e-07)
(0.625006 3.10044e-07 5.82238e-08)
(0.625001 4.1623e-08 -3.20825e-09)
(0.625006 3.15848e-07 1.46621e-07)
(0.625006 -2.21334e-07 -8.56013e-08)
(0.625006 2.60062e-07 4.31377e-08)
(0.625006 -1.80514e-07 -1.20386e-08)
(0.625001 3.43244e-08 -3.66983e-09)
(0.625006 3.07551e-07 5.23228e-07)
(0.625006 -2.28079e-07 -4.44566e-07)
(0.625006 2.61465e-07 3.02339e-07)
(0.625006 -1.85993e-07 -1.88768e-07)
(0.625004 1.1327e-07 2.90054e-08)
(0.625001 2.71692e-08 -2.94163e-09)
(0.625006 2.124e-07 3.05864e-07)
(0.625006 -1.38615e-07 -2.27879e-07)
(0.625006 1.80608e-07 1.60823e-07)
(0.625006 -1.00847e-07 -1.00521e-07)
(0.625004 7.8718e-08 2.48764e-08)
(0.625005 -8.21793e-08 -8.14381e-09)
(0.625001 2.00239e-08 -3.16447e-09)
(0.625006 1.89782e-07 5.58789e-07)
(0.625006 -1.34368e-07 -5.37624e-07)
(0.625006 1.67657e-07 4.67767e-07)
(0.625006 -1.02675e-07 -4.08547e-07)
(0.625004 7.76394e-08 1.4542e-07)
(0.625005 -7.55088e-08 -9.71964e-08)
(0.625003 3.07561e-08 8.21985e-09)
(0.625001 1.3543e-08 -2.46114e-09)
(0.625006 9.57551e-08 4.38891e-07)
(0.625006 -4.4687e-08 -3.86039e-07)
(0.625006 6.70398e-08 3.27052e-07)
(0.625006 -8.45257e-09 -2.54578e-07)
(0.625004 2.68853e-08 9.47389e-08)
(0.625005 -1.49897e-08 -6.80522e-08)
(0.625003 1.27285e-08 8.16013e-09)
(0.625003 1.49015e-08 -3.74749e-09)
(0.625001 7.2605e-09 -2.29428e-09)
(0.625006 6.37448e-08 4.92382e-07)
(0.625006 -3.64459e-08 -4.90374e-07)
(0.625006 4.72489e-08 4.78706e-07)
(0.625006 -1.3833e-08 -4.60592e-07)
(0.625004 2.00674e-08 2.11361e-07)
(0.625005 -1.08083e-08 -1.97845e-07)
(0.625003 9.28539e-09 3.78541e-08)
(0.625003 8.75483e-09 -3.0407e-08)
(0.625002 3.43431e-08 3.1678e-10)
(0.625001 2.17788e-09 -1.79759e-09)
(0.625006 1.27532e-08 4.43525e-07)
(0.625006 4.5124e-09 -4.31982e-07)
(0.625006 -1.21718e-08 4.13028e-07)
(0.625006 4.2538e-08 -3.6966e-07)
(0.625004 -2.53763e-08 1.65048e-07)
(0.625005 4.44246e-08 -1.44206e-07)
(0.625003 -1.24751e-08 2.61634e-08)
(0.625003 2.51954e-08 -2.63154e-08)
(0.625002 9.80695e-09 7.00129e-11)
(0.625001 2.73902e-08 -7.38444e-10)
(0.625001 6.19595e-08 -9.01613e-10)
(0.625001 6.26508e-08 -3.03768e-09)
(0.625006 3.64508e-07 8.63582e-09)
(0.625001 6.13604e-08 -3.49512e-09)
(0.625006 4.08283e-07 1.90474e-07)
(0.625006 -2.96658e-07 -6.49589e-08)
(0.625001 5.53162e-08 -4.17016e-09)
(0.625006 3.74309e-07 7.89055e-08)
(0.625006 -2.58228e-07 -3.69917e-08)
(0.625006 2.87341e-07 1.08567e-08)
(0.625001 4.89879e-08 -4.33157e-09)
(0.625006 3.85371e-07 4.56937e-07)
(0.625006 -2.82194e-07 -3.40121e-07)
(0.625006 3.09132e-07 1.81941e-07)
(0.625006 -2.42302e-07 -6.37793e-08)
(0.625001 4.15788e-08 -3.87886e-09)
(0.625006 3.14144e-07 2.09479e-07)
(0.625006 -2.19979e-07 -1.38758e-07)
(0.625006 2.58442e-07 8.77783e-08)
(0.625006 -1.79625e-07 -4.35568e-08)
(0.625004 1.07936e-07 6.30319e-09)
(0.625001 3.41882e-08 -4.14588e-09)
(0.625006 3.07654e-07 5.84357e-07)
(0.625006 -2.28445e-07 -5.33688e-07)
(0.625006 2.61376e-07 4.18886e-07)
(0.625006 -1.86111e-07 -3.24431e-07)
(0.625004 1.1274e-07 9.00621e-08)
(0.625005 -1.33265e-07 -3.34478e-08)
(0.625001 2.70098e-08 -3.17356e-09)
(0.625006 2.14738e-07 3.71069e-07)
(0.625006 -1.40087e-07 -2.97918e-07)
(0.625006 1.8004e-07 2.28289e-07)
(0.625006 -1.00598e-07 -1.61608e-07)
(0.625004 7.79485e-08 5.0466e-08)
(0.625005 -8.16418e-08 -2.93907e-08)
(0.625003 3.34282e-08 1.80376e-09)
(0.625001 1.98605e-08 -3.13477e-09)
(0.625006 1.89557e-07 5.61117e-07)
(0.625006 -1.34402e-07 -5.58241e-07)
(0.625006 1.67188e-07 5.19543e-07)
(0.625006 -1.03289e-07 -4.86538e-07)
(0.625004 7.73308e-08 1.9974e-07)
(0.625005 -7.54524e-08 -1.66109e-07)
(0.625003 3.05239e-08 2.51454e-08)
(0.625003 4.25225e-09 -1.09126e-08)
(0.625001 1.3385e-08 -2.34646e-09)
(0.625006 1.06127e-07 4.60962e-07)
(0.625006 -5.50178e-08 -4.28349e-07)
(0.625006 7.36694e-08 3.86086e-07)
(0.625006 -1.44892e-08 -3.2482e-07)
(0.625004 2.78424e-08 1.31676e-07)
(0.625005 -1.58578e-08 -1.07086e-07)
(0.625003 1.26424e-08 1.61575e-08)
(0.625003 1.49774e-08 -1.33405e-08)
(0.625002 5.83532e-08 -1.46293e-11)
(0.625001 7.18014e-09 -1.95069e-09)
(0.625006 6.95719e-08 4.7279e-07)
(0.625006 -4.21806e-08 -4.81798e-07)
(0.625006 5.18342e-08 4.86117e-07)
(0.625006 -1.82624e-08 -4.81865e-07)
(0.625004 2.13497e-08 2.34443e-07)
(0.625005 -1.22528e-08 -2.35213e-07)
(0.625003 9.40463e-09 5.11606e-08)
(0.625003 8.62355e-09 -5.19116e-08)
(0.625002 3.42925e-08 7.96946e-10)
(0.625001 7.53289e-08 -1.26834e-09)
(0.625001 2.13505e-09 -1.32313e-09)
(0.625006 1.97717e-08 4.23163e-07)
(0.625006 -6.15305e-09 -4.30862e-07)
(0.625006 1.49037e-09 4.32515e-07)
(0.625006 2.33473e-08 -4.08881e-07)
(0.625004 -1.53326e-08 1.9344e-07)
(0.625005 3.23231e-08 -1.81984e-07)
(0.625003 -9.63291e-09 3.61308e-08)
(0.625003 2.22919e-08 -4.05745e-08)
(0.625002 9.97014e-09 -4.27758e-11)
(0.625001 2.71761e-08 -2.58788e-09)
(0.624999 5.49443e-08 -5.54195e-10)
(0.625001 5.76072e-08 -1.25674e-09)
(0.625001 6.23241e-08 -2.93952e-09)
(0.625006 3.71516e-07 6.14661e-08)
(0.625001 6.29385e-08 -5.40386e-09)
(0.625006 3.62386e-07 3.10549e-08)
(0.625006 -2.6185e-07 -9.02307e-09)
(0.625001 6.14837e-08 -5.15155e-09)
(0.625006 4.06747e-07 3.32206e-07)
(0.625006 -2.95857e-07 -2.03452e-07)
(0.625006 3.09821e-07 5.92354e-08)
(0.625001 5.53549e-08 -5.41966e-09)
(0.625006 3.71572e-07 1.26727e-07)
(0.625006 -2.56732e-07 -7.5872e-08)
(0.625006 2.85809e-07 3.84648e-08)
(0.625006 -2.19152e-07 -1.08301e-08)
(0.625001 4.88835e-08 -5.29433e-09)
(0.625006 3.84972e-07 5.54713e-07)
(0.625006 -2.82367e-07 -4.73523e-07)
(0.625006 3.08471e-07 3.15287e-07)
(0.625006 -2.4198e-07 -1.99201e-07)
(0.625004 1.32757e-07 3.03022e-08)
(0.625001 4.14456e-08 -4.40127e-09)
(0.625006 3.13218e-07 2.75491e-07)
(0.625006 -2.19025e-07 -2.00467e-07)
(0.625006 2.5673e-07 1.40799e-07)
(0.625006 -1.78657e-07 -8.95623e-08)
(0.625004 1.07028e-07 2.23557e-08)
(0.625005 -1.32999e-07 -7.1096e-09)
(0.625001 3.39792e-08 -4.43577e-09)
(0.625006 3.07407e-07 6.11201e-07)
(0.625006 -2.28837e-07 -5.93621e-07)
(0.625006 2.61413e-07 5.04701e-07)
(0.625006 -1.8673e-07 -4.48673e-07)
(0.625004 1.12355e-07 1.54576e-07)
(0.625005 -1.32901e-07 -1.04231e-07)
(0.625003 4.65559e-08 8.53335e-09)
(0.625001 2.67943e-08 -3.22889e-09)
(0.625006 2.19007e-07 4.21833e-07)
(0.625006 -1.43277e-07 -3.62546e-07)
(0.625006 1.80559e-07 2.96783e-07)
(0.625006 -1.01221e-07 -2.30696e-07)
(0.625004 7.72482e-08 8.07155e-08)
(0.625005 -8.11368e-08 -6.00409e-08)
(0.625003 3.30718e-08 6.37998e-09)
(0.625003 1.33494e-08 -3.35903e-09)
(0.625001 1.96654e-08 -2.92739e-09)
(0.625006 1.89995e-07 5.44291e-07)
(0.625006 -1.34671e-07 -5.57657e-07)
(0.625006 1.66502e-07 5.42185e-07)
(0.625006 -1.03963e-07 -5.38065e-07)
(0.625004 7.69576e-08 2.38744e-07)
(0.625005 -7.55762e-08 -2.28547e-07)
(0.625003 3.0296e-08 4.23052e-08)
(0.625003 4.43369e-09 -3.40747e-08)
(0.625002 8.68227e-08 3.5181e-10)
(0.625001 1.32145e-08 -2.0418e-09)
(0.625006 1.1667e-07 4.59987e-07)
(0.625006 -6.63627e-08 -4.49703e-07)
(0.625006 8.23371e-08 4.27388e-07)
(0.625006 -2.30455e-08 -3.84834e-07)
(0.625004 2.98551e-08 1.67216e-07)
(0.625005 -1.77403e-08 -1.48919e-07)
(0.625003 1.26761e-08 2.54176e-08)
(0.625003 1.49492e-08 -2.67653e-08)
(0.625002 5.82719e-08 -1.40601e-10)
(0.625001 1.3138e-07 -7.21819e-10)
(0.625001 7.09706e-09 -1.43693e-09)
(0.625006 7.53472e-08 4.40265e-07)
(0.625006 -4.82683e-08 -4.61014e-07)
(0.625006 5.68875e-08 4.78757e-07)
(0.625006 -2.38149e-08 -4.87963e-07)
(0.625004 2.28927e-08 2.46134e-07)
(0.625005 -1.43631e-08 -2.6126e-07)
(0.625003 9.58016e-09 6.02917e-08)
(0.625003 8.28161e-09 -7.14205e-08)
(0.625002 3.42397e-08 1.03428e-09)
(0.625001 7.53376e-08 -4.10113e-09)
(0.624999 1.56719e-07 -1.73702e-09)
(0.625001 2.09984e-09 -6.85331e-10)
(0.625006 2.44124e-08 3.85054e-07)
(0.625006 -1.34115e-08 -4.10057e-07)
(0.625006 1.13999e-08 4.30629e-07)
(0.625006 8.52202e-09 -4.29528e-07)
(0.625004 -6.35109e-09 2.12815e-07)
(0.625005 2.07952e-08 -2.14154e-07)
(0.625003 -6.41621e-09 4.55445e-08)
(0.625003 1.87666e-08 -5.56981e-08)
(0.625002 1.01598e-08 -1.01419e-10)
(0.625001 2.69079e-08 -5.04051e-09)
(0.624999 5.48637e-08 -2.02326e-09)
(0.624995 9.63992e-08 4.36293e-10)
(0.625001 5.12265e-08 -1.01099e-09)
(0.625001 5.80378e-08 -4.05985e-09)
(0.625006 3.20088e-07 7.11627e-09)
(0.625001 6.26585e-08 -5.35456e-09)
(0.625006 3.69884e-07 1.93276e-07)
(0.625006 -2.67683e-07 -6.54038e-08)
(0.625001 6.31404e-08 -7.82441e-09)
(0.625006 3.60049e-07 6.36498e-08)
(0.625006 -2.60494e-07 -3.22231e-08)
(0.625006 2.58151e-07 9.15157e-09)
(0.625001 6.14626e-08 -6.81756e-09)
(0.625006 4.05578e-07 4.65822e-07)
(0.625006 -2.95315e-07 -3.54101e-07)
(0.625006 3.08769e-07 1.85643e-07)
(0.625006 -2.52989e-07 -6.54128e-08)
(0.625001 5.52698e-08 -6.52556e-09)
(0.625006 3.68844e-07 1.81568e-07)
(0.625006 -2.55107e-07 -1.22964e-07)
(0.625006 2.84046e-07 7.75689e-08)
(0.625006 -2.18236e-07 -3.88807e-08)
(0.625004 1.22807e-07 5.93471e-09)
(0.625001 4.86602e-08 -6.06363e-09)
(0.625006 3.84782e-07 6.2351e-07)
(0.625006 -2.82923e-07 -5.73361e-07)
(0.625006 3.08272e-07 4.39712e-07)
(0.625006 -2.41963e-07 -3.45018e-07)
(0.625004 1.3206e-07 9.45304e-08)
(0.625005 -1.63587e-07 -3.46049e-08)
(0.625001 4.12228e-08 -4.73793e-09)
(0.625006 3.13368e-07 3.39498e-07)
(0.625006 -2.18959e-07 -2.66255e-07)
(0.625006 2.55269e-07 2.01333e-07)
(0.625006 -1.77731e-07 -1.44593e-07)
(0.625004 1.06078e-07 4.50737e-08)
(0.625005 -1.3224e-07 -2.55947e-08)
(0.625003 4.78197e-08 1.48973e-09)
(0.625001 3.37071e-08 -4.45839e-09)
(0.625006 3.06815e-07 6.13095e-07)
(0.625006 -2.28895e-07 -6.17964e-07)
(0.625006 2.61418e-07 5.63554e-07)
(0.625006 -1.87604e-07 -5.38957e-07)
(0.625004 1.12235e-07 2.13951e-07)
(0.625005 -1.32667e-07 -1.7969e-07)
(0.625003 4.62131e-08 2.62541e-08)
(0.625003 8.9666e-09 -1.16542e-08)
(0.625001 2.65249e-08 -3.10574e-09)
(0.625006 2.24829e-07 4.53329e-07)
(0.625006 -1.48571e-07 -4.13048e-07)
(0.625006 1.82449e-07 3.59692e-07)
(0.625006 -1.03371e-07 -3.013e-07)
(0.625004 7.68564e-08 1.14935e-07)
(0.625005 -8.08138e-08 -9.58068e-08)
(0.625003 3.2695e-08 1.2851e-08)
(0.625003 1.36687e-08 -1.20123e-08)
(0.625002 1.16794e-07 -8.09292e-11)
(0.625001 1.94547e-08 -2.52047e-09)
(0.625006 1.91501e-07 5.13957e-07)
(0.625006 -1.35692e-07 -5.37941e-07)
(0.625006 1.65871e-07 5.44024e-07)
(0.625006 -1.0473e-07 -5.58911e-07)
(0.625004 7.64467e-08 2.65055e-07)
(0.625005 -7.57816e-08 -2.73371e-07)
(0.625003 3.00828e-08 5.76946e-08)
(0.625003 4.57574e-09 -5.87924e-08)
(0.625002 8.66212e-08 9.04127e-10)
(0.625001 1.91604e-07 -1.37188e-09)
(0.625001 1.30416e-08 -1.55061e-09)
(0.625006 1.26414e-07 4.38046e-07)
(0.625006 -7.78472e-08 -4.48142e-07)
(0.625006 9.19343e-08 4.47895e-07)
(0.625006 -3.40251e-08 -4.27328e-07)
(0.625004 3.28953e-08 1.97401e-07)
(0.625005 -2.10656e-08 -1.89156e-07)
(0.625003 1.29203e-08 3.55752e-08)
(0.625003 1.47007e-08 -4.18028e-08)
(0.625002 5.8199e-08 -4.13344e-10)
(0.625001 1.31399e-07 -2.5736e-09)
(0.624999 2.7329e-07 -5.31038e-10)
(0.625001 7.01266e-09 -7.71881e-10)
(0.625006 8.07882e-08 3.95051e-07)
(0.625006 -5.43243e-08 -4.27702e-07)
(0.625006 6.22641e-08 4.58543e-07)
(0.625006 -2.99766e-08 -4.79746e-07)
(0.625004 2.48726e-08 2.49677e-07)
(0.625005 -1.69245e-08 -2.74817e-07)
(0.625003 9.8574e-09 6.63934e-08)
(0.625003 7.77367e-09 -8.58297e-08)
(0.625002 3.41771e-08 1.17594e-09)
(0.625001 7.53374e-08 -7.39779e-09)
(0.624999 1.56683e-07 -5.40034e-09)
(0.624995 3.12687e-07 1.75879e-09)
(0.625001 2.07e-09 8.18122e-11)
(0.625006 2.74194e-08 3.3244e-07)
(0.625006 -1.81727e-08 -3.71724e-07)
(0.625006 1.80789e-08 4.09193e-07)
(0.625006 -2.27193e-09 -4.28876e-07)
(0.625004 5.22659e-10 2.22367e-07)
(0.625005 1.03871e-08 -2.36537e-07)
(0.625003 -3.38956e-09 5.34142e-08)
(0.625003 1.47201e-08 -6.99306e-08)
(0.625002 1.03484e-08 -4.75519e-11)
(0.625001 2.65535e-08 -7.67062e-09)
(0.624999 5.46228e-08 -4.12831e-09)
(0.624995 9.64733e-08 1.50618e-09)
(0.62499 2.02348e-07 -1.07777e-11)
(0.625001 4.90505e-08 -1.0396e-09)
(0.625001 5.17421e-08 -3.30354e-09)
(0.625006 3.00922e-07 6.13068e-08)
(0.625001 5.84531e-08 -7.31025e-09)
(0.625006 3.18102e-07 2.56075e-08)
(0.625006 -2.20958e-07 -8.04651e-09)
(0.625001 6.29091e-08 -7.91026e-09)
(0.625006 3.68436e-07 3.38271e-07)
(0.625006 -2.66882e-07 -2.0538e-07)
(0.625006 2.65778e-07 6.07448e-08)
(0.625001 6.32101e-08 -1.00675e-08)
(0.625006 3.57552e-07 1.02981e-07)
(0.625006 -2.5887e-07 -6.57063e-08)
(0.625006 2.56769e-07 3.23966e-08)
(0.625006 -2.08793e-07 -9.11387e-09)
(0.625001 6.12639e-08 -8.35486e-09)
(0.625006 4.04711e-07 5.69013e-07)
(0.625006 -2.95236e-07 -4.95905e-07)
(0.625006 3.07902e-07 3.23282e-07)
(0.625006 -2.52636e-07 -2.05002e-07)
(0.625004 1.38258e-07 3.10085e-08)
(0.625001 5.50489e-08 -7.3732e-09)
(0.625006 3.66323e-07 2.40616e-07)
(0.625006 -2.53656e-07 -1.78107e-07)
(0.625006 2.8207e-07 1.24138e-07)
(0.625006 -2.17104e-07 -7.95207e-08)
(0.625004 1.21776e-07 2.07721e-08)
(0.625005 -1.45998e-07 -6.14607e-09)
(0.625001 4.83215e-08 -6.57195e-09)
(0.625006 3.84248e-07 6.55375e-07)
(0.625006 -2.83783e-07 -6.42753e-07)
(0.625006 3.08372e-07 5.3384e-07)
(0.625006 -2.42441e-07 -4.80642e-07)
(0.625004 1.31528e-07 1.63507e-07)
(0.625005 -1.63105e-07 -1.08225e-07)
(0.625003 5.77554e-08 8.78226e-09)
(0.625001 4.09125e-08 -4.83182e-09)
(0.625006 3.15081e-07 3.93285e-07)
(0.625006 -2.20174e-07 -3.30853e-07)
(0.625006 2.54453e-07 2.65017e-07)
(0.625006 -1.77234e-07 -2.07952e-07)
(0.625004 1.05183e-07 7.21698e-08)
(0.625005 -1.3138e-07 -5.23008e-08)
(0.625003 4.73556e-08 5.24408e-09)
(0.625003 2.27302e-08 -3.11223e-09)
(0.625001 3.33819e-08 -4.23542e-09)
(0.625006 3.05921e-07 5.91848e-07)
(0.625006 -2.28703e-07 -6.16996e-07)
(0.625006 2.60968e-07 5.89279e-07)
(0.625006 -1.88611e-07 -5.9983e-07)
(0.625004 1.12275e-07 2.57693e-07)
(0.625005 -1.32658e-07 -2.4908e-07)
(0.625003 4.59055e-08 4.45925e-08)
(0.625003 9.30145e-09 -3.65432e-08)
(0.625002 1.50647e-07 3.03556e-10)
(0.625001 2.62256e-08 -2.75866e-09)
(0.625006 2.31927e-07 4.6119e-07)
(0.625006 -1.55622e-07 -4.443e-07)
(0.625006 1.86086e-07 4.08423e-07)
(0.625006 -1.07404e-07 -3.66367e-07)
(0.625004 7.70513e-08 1.49857e-07)
(0.625005 -8.09388e-08 -1.35685e-07)
(0.625003 3.23307e-08 2.07209e-08)
(0.625003 1.39715e-08 -2.42536e-08)
(0.625002 1.16549e-07 -3.60627e-10)
(0.625001 2.60831e-07 -7.03563e-10)
(0.625001 1.9236e-08 -1.93242e-09)
(0.625006 1.94469e-07 4.71793e-07)
(0.625006 -1.37899e-07 -5.05495e-07)
(0.625006 1.65794e-07 5.26981e-07)
(0.625006 -1.05895e-07 -5.58581e-07)
(0.625004 7.57978e-08 2.76504e-07)
(0.625005 -7.60271e-08 -3.0362e-07)
(0.625003 2.98526e-08 6.84326e-08)
(0.625003 4.63727e-09 -8.15052e-08)
(0.625002 8.64306e-08 1.22049e-09)
(0.625001 1.91721e-07 -4.44793e-09)
(0.624999 4.00051e-07 -1.90639e-09)
(0.625001 1.28784e-08 -8.87575e-10)
(0.625006 1.35105e-07 3.97829e-07)
(0.625006 -8.84064e-08 -4.25742e-07)
(0.625006 1.01658e-07 4.45699e-07)
(0.625006 -4.61314e-08 -4.4898e-07)
(0.625004 3.69207e-08 2.18456e-07)
(0.625005 -2.57678e-08 -2.2338e-07)
(0.625003 1.34731e-08 4.54438e-08)
(0.625003 1.41007e-08 -5.76902e-08)
(0.625002 5.81286e-08 -6.12192e-10)
(0.625001 1.31417e-07 -5.12819e-09)
(0.624999 2.73275e-07 -1.97976e-09)
(0.624995 5.46854e-07 4.43993e-10)
(0.625001 6.9371e-09 1.40244e-11)
(0.625006 8.56241e-08 3.38687e-07)
(0.625006 -6.00516e-08 -3.81993e-07)
(0.625006 6.75879e-08 4.25419e-07)
(0.625006 -3.65465e-08 -4.59447e-07)
(0.625004 2.70802e-08 2.45523e-07)
(0.625005 -2.01214e-08 -2.79423e-07)
(0.625003 1.01932e-08 6.91728e-08)
(0.625003 7.01215e-09 -9.63123e-08)
(0.625002 3.41005e-08 1.14451e-09)
(0.625001 7.53059e-08 -1.05735e-08)
(0.624999 1.56631e-07 -9.17317e-09)
(0.624995 3.12723e-07 5.28412e-09)
(0.62499 6.04507e-07 -1.8117e-09)
(0.625001 2.04546e-09 9.29452e-10)
(0.625006 2.96586e-08 2.69627e-07)
(0.625006 -2.12584e-08 -3.18904e-07)
(0.625006 2.24584e-08 3.70284e-07)
(0.625006 -9.67286e-09 -4.08628e-07)
(0.625004 5.46391e-09 2.20848e-07)
(0.625005 2.31635e-09 -2.48212e-07)
(0.625003 -7.0358e-10 5.87113e-08)
(0.625003 1.08513e-08 -8.20748e-08)
(0.625002 1.05285e-08 2.50007e-11)
(0.625001 2.61621e-08 -1.03707e-08)
(0.624999 5.41428e-08 -6.46783e-09)
(0.624995 9.67278e-08 2.94296e-09)
(0.62499 2.02098e-07 -4.02323e-10)
(0.624981 3.50813e-07 -5.62113e-09)
(0.625001 4.83994e-08 -7.65166e-10)
(0.625001 4.96439e-08 -3.3548e-09)
(0.625006 2.39982e-07 5.81398e-09)
(0.625001 5.22672e-08 -6.03525e-09)
(0.625006 2.99464e-07 1.93053e-07)
(0.625006 -2.1768e-07 -6.55979e-08)
(0.625001 5.88045e-08 -1.06211e-08)
(0.625006 3.15881e-07 5.25716e-08)
(0.625006 -2.19724e-07 -2.84517e-08)
(0.625006 2.17839e-07 8.1426e-09)
(0.625001 6.30293e-08 -1.04137e-08)
(0.625006 3.67403e-07 4.76044e-07)
(0.625006 -2.66309e-07 -3.58918e-07)
(0.625006 2.64832e-07 1.90876e-07)
(0.625006 -1.99762e-07 -6.54327e-08)
(0.625001 6.3119e-08 -1.1965e-08)
(0.625006 3.55111e-07 1.48934e-07)
(0.625006 -2.56936e-07 -1.06425e-07)
(0.625006 2.55239e-07 6.5361e-08)
(0.625006 -2.07986e-07 -3.25942e-08)
(0.625004 1.16286e-07 5.12667e-09)
(0.625001 6.08839e-08 -9.60078e-09)
(0.625006 4.04035e-07 6.43624e-07)
(0.625006 -2.9553e-07 -6.04945e-07)
(0.625006 3.07399e-07 4.53193e-07)
(0.625006 -2.52489e-07 -3.57044e-07)
(0.625004 1.37429e-07 9.70675e-08)
(0.625005 -1.55135e-07 -3.51721e-08)
(0.625001 5.46949e-08 -7.8946e-09)
(0.625006 3.64328e-07 3.00143e-07)
(0.625006 -2.52669e-07 -2.38366e-07)
(0.625006 2.80136e-07 1.77628e-07)
(0.625006 -2.15737e-07 -1.28392e-07)
(0.625004 1.20651e-07 4.13789e-08)
(0.625005 -1.45219e-07 -2.20066e-08)
(0.625003 5.89529e-08 1.40005e-09)
(0.625001 4.78811e-08 -6.72313e-09)
(0.625006 3.83188e-07 6.5937e-07)
(0.625006 -2.84462e-07 -6.73509e-07)
(0.625006 3.08666e-07 6.00146e-07)
(0.625006 -2.43226e-07 -5.82358e-07)
(0.625004 1.31315e-07 2.27902e-07)
(0.625005 -1.62752e-07 -1.87787e-07)
(0.625003 5.73375e-08 2.71709e-08)
(0.625003 2.71111e-08 -1.21131e-08)
(0.625001 4.05242e-08 -4.67831e-09)
(0.625006 3.18149e-07 4.31506e-07)
(0.625006 -2.2326e-07 -3.85822e-07)
(0.625006 2.5461e-07 3.26786e-07)
(0.625006 -1.77673e-07 -2.75073e-07)
(0.625004 1.04554e-07 1.03255e-07)
(0.625005 -1.30467e-07 -8.39367e-08)
(0.625003 4.68693e-08 1.05579e-08)
(0.625003 2.32112e-08 -1.10506e-08)
(0.625002 1.86716e-07 -1.70741e-10)
(0.625001 3.30261e-08 -3.74145e-09)
(0.625006 3.05356e-07 5.55665e-07)
(0.625006 -2.28434e-07 -5.92624e-07)
(0.625006 2.60089e-07 5.90824e-07)
(0.625006 -1.89414e-07 -6.24811e-07)
(0.625004 1.12408e-07 2.87694e-07)
(0.625005 -1.3273e-07 -3.00082e-07)
(0.625003 4.56745e-08 6.1318e-08)
(0.625003 9.58251e-09 -6.35183e-08)
(0.625002 1.50316e-07 7.64354e-10)
(0.625001 3.35344e-07 -1.46301e-09)
(0.625001 2.59122e-08 -2.2024e-09)
(0.625006 2.39629e-07 4.46159e-07)
(0.625006 -1.64117e-07 -4.51909e-07)
(0.625006 1.91146e-07 4.38189e-07)
(0.625006 -1.13716e-07 -4.17138e-07)
(0.625004 7.79895e-08 1.82078e-07)
(0.625005 -8.18504e-08 -1.75983e-07)
(0.625003 3.20584e-08 2.99132e-08)
(0.625003 1.41842e-08 -3.82727e-08)
(0.625002 1.16313e-07 -8.23328e-10)
(0.625001 2.60957e-07 -2.49422e-09)
(0.624999 5.43106e-07 -3.93897e-10)
(0.625001 1.90281e-08 -1.18015e-09)
(0.625006 1.98679e-07 4.19319e-07)
(0.625006 -1.41674e-07 -4.61818e-07)
(0.625006 1.66715e-07 4.96587e-07)
(0.625006 -1.07957e-07 -5.39133e-07)
(0.625004 7.51487e-08 2.77312e-07)
(0.625005 -7.63159e-08 -3.1684e-07)
(0.625003 2.95768e-08 7.53867e-08)
(0.625003 4.63602e-09 -9.84435e-08)
(0.625002 8.6246e-08 1.41758e-09)
(0.625001 1.91842e-07 -8.05933e-09)
(0.624999 3.99946e-07 -5.95464e-09)
(0.624995 8.08686e-07 1.99325e-09)
(0.625001 1.27399e-08 -8.20032e-11)
(0.625006 1.42663e-07 3.43386e-07)
(0.625006 -9.78723e-08 -3.85297e-07)
(0.625006 1.106e-07 4.2284e-07)
(0.625006 -5.84515e-08 -4.47782e-07)
(0.625004 4.14003e-08 2.28775e-07)
(0.625005 -3.17678e-08 -2.47381e-07)
(0.625003 1.43191e-08 5.38479e-08)
(0.625003 1.30076e-08 -7.28095e-08)
(0.625002 5.80665e-08 -6.61296e-10)
(0.625001 1.31408e-07 -7.88847e-09)
(0.624999 2.73246e-07 -4.15683e-09)
(0.624995 5.46875e-07 1.56011e-09)
(0.62499 1.0569e-06 1.48249e-10)
(0.625001 6.87645e-09 8.83253e-10)
(0.625006 9.00972e-08 2.73942e-07)
(0.625006 -6.52004e-08 -3.25498e-07)
(0.625006 7.25918e-08 3.79687e-07)
(0.625006 -4.31059e-08 -4.26671e-07)
(0.625004 2.9462e-08 2.34692e-07)
(0.625005 -2.36393e-08 -2.75573e-07)
(0.625003 1.06393e-08 6.96477e-08)
(0.625003 6.07507e-09 -1.02383e-07)
(0.625002 3.40077e-08 1.0145e-09)
(0.625001 7.52467e-08 -1.32707e-08)
(0.624999 1.56549e-07 -1.24778e-08)
(0.624995 3.12781e-07 8.58536e-09)
(0.62499 6.04431e-07 -5.47854e-09)
(0.624981 1.11747e-06 -3.30994e-09)
(0.625001 2.03163e-09 1.79575e-09)
(0.625006 3.12563e-08 2.01607e-07)
(0.625006 -2.37058e-08 -2.56212e-07)
(0.625006 2.52681e-08 3.17102e-07)
(0.625006 -1.45806e-08 -3.70855e-07)
(0.625004 8.76424e-09 2.09211e-07)
(0.625005 -3.60465e-09 -2.47591e-07)
(0.625003 1.33154e-09 6.12034e-08)
(0.625003 7.3401e-09 -9.04995e-08)
(0.625002 1.06865e-08 7.82201e-11)
(0.625001 2.57301e-08 -1.2859e-08)
(0.624999 5.35214e-08 -8.91888e-09)
(0.624995 9.72528e-08 4.60496e-09)
(0.62499 2.01632e-07 -1.55398e-09)
(0.624981 3.51097e-07 -1.75009e-08)
(0.624971 6.90516e-07 -1.54712e-08)
(0.625001 6.37881e-08 -5.79164e-10)
(0.625001 4.90952e-08 -2.4648e-09)
(0.625006 2.15666e-07 6.12941e-08)
(0.625001 5.0247e-08 -6.037e-09)
(0.625006 2.38298e-07 2.09589e-08)