/*--------------------------------*- C++ -*----------------------------------*\
  =========                 |
  \\      /  F ield         | OpenFOAM: The Open Source CFD Toolbox
   \\    /   O peration     | Website:  https://openfoam.org
    \\  /    A nd           | Version:  7
     \\/     M anipulation  |
\*---------------------------------------------------------------------------*/
FoamFile
{
    version     2.0;
    format      ascii;
    class       surfaceScalarField;
    location    "200";
    object      phi;
}
// * * * * * * * * * * * * * * * * * * * * * * * * * * * * * * * * * * * * * //

dimensions      [0 3 -1 0 0 0 0];

internalField   nonuniform List<scalar> 
127367
(
2.74007e-11
1.99438e-13
2.51198e-12
7.19407e-11
1.73544e-12
2.10573e-11
6.12035e-14
7.52421e-14
6.30127e-14
3.82509e-11
4.83173e-13
2.85935e-12
1.0235e-10
3.03467e-12
3.38893e-11
5.68393e-13
6.54975e-13
5.7332e-13
1.17405e-10
4.38288e-12
2.4909e-11
2.54367e-14
3.69734e-14
1.28493e-14
1.48923e-13
2.24727e-13
1.72557e-13
4.93596e-11
8.10245e-13
2.71273e-12
1.66489e-12
1.7634e-11
1.13163e-10
1.23505e-12
1.25646e-12
1.1116e-12
1.85246e-10
8.22429e-12
4.52133e-11
2.18279e-13
3.36804e-13
1.25365e-13
1.44196e-12
2.05335e-12
1.60986e-12
1.54267e-10
7.43332e-12
2.44234e-11
7.4616e-15
2.74954e-14
2.02945e-15
4.74325e-14
1.24207e-13
6.59648e-14
2.53857e-13
4.31317e-13
2.97652e-13
6.19429e-11
1.17676e-12
2.49813e-12
7.41881e-13
6.59992e-13
1.4981e-12
4.72355e-12
2.53955e-11
2.11842e-10
1.54256e-12
1.58983e-11
1.2103e-10
5.59371e-13
6.44418e-13
2.70984e-13
3.47625e-12
4.07606e-12
3.22558e-12
2.50914e-10
1.42734e-11
4.61487e-11
6.34809e-14
2.49514e-13
3.12975e-14
4.43309e-13
1.15886e-12
6.24028e-13
2.50225e-12
3.99227e-12
2.80256e-12
1.93471e-10
1.08515e-11
2.27043e-11
7.2146e-15
1.97137e-14
5.78907e-16
-7.4621e-16
9.56749e-14
3.13225e-14
6.18979e-14
2.61692e-13
1.73724e-13
3.64092e-13
6.9891e-13
4.11437e-13
7.61106e-11
1.56333e-12
2.1882e-12
3.7702e-13
1.71049e-13
7.5321e-13
2.44227e-12
1.94073e-12
4.47682e-12
6.99765e-13
6.2984e-13
1.71108e-12
8.33182e-12
2.66247e-11
2.91376e-10
4.45373e-12
2.35267e-11
2.32606e-10
3.23059e-12
3.21461e-11
1.32879e-10
1.20718e-13
4.87266e-13
9.9939e-14
1.20364e-12
2.30787e-12
1.27889e-12
6.2819e-12
8.02007e-12
5.69933e-12
3.15545e-10
2.10689e-11
4.36653e-11
5.94956e-14
1.81685e-13
1.55721e-14
-1.14007e-14
8.91313e-13
3.09531e-13
5.98403e-13
2.45687e-12
1.62299e-12
3.61851e-12
6.5075e-12
3.89218e-12
2.37358e-10
1.44539e-11
1.99941e-11
4.90946e-15
1.50069e-14
-1.93012e-16
1.2546e-15
7.29957e-14
2.20201e-14
-1.87445e-14
2.05985e-13
1.05791e-13
8.43829e-14
4.62263e-13
3.2601e-13
4.50257e-13
1.01453e-12
5.0999e-13
9.10005e-11
1.94196e-12
1.83438e-12
2.89828e-13
7.33316e-14
1.34597e-13
1.38401e-12
7.79436e-13
1.65355e-12
3.58853e-13
1.66852e-13
9.27298e-13
4.84003e-12
3.46504e-12
8.24943e-12
2.33188e-12
1.86469e-12
5.36386e-12
1.46978e-12
1.35094e-12
2.121e-12
1.23985e-11
2.55393e-11
3.67137e-10
7.90959e-12
2.5047e-11
3.23988e-10
9.47007e-12
4.86783e-11
2.67897e-10
7.11685e-12
6.63099e-11
1.47098e-10
1.26088e-13
3.58983e-13
6.17133e-14
-6.72493e-14
1.7907e-12
6.72988e-13
1.68673e-12
4.95372e-12
3.25697e-12
9.25657e-12
1.31467e-11
7.98355e-12
3.87012e-10
2.82305e-11
3.87719e-11
4.04236e-14
1.39772e-13
6.41978e-15
3.49535e-15
6.84741e-13
2.19933e-13
-1.83413e-13
1.93236e-12
9.98741e-13
8.30558e-13
4.35174e-12
3.03262e-12
4.49381e-12
9.47509e-12
4.82744e-12
2.8325e-10
1.79786e-11
1.68011e-11
3.49072e-15
1.20143e-14
-4.92209e-16
-9.74648e-16
5.91548e-14
1.46346e-14
-1.54181e-14
1.63697e-13
7.97406e-14
-3.60138e-14
3.73379e-13
2.30706e-13
1.15649e-13
7.2545e-13
4.99455e-13
4.94211e-13
1.35159e-12
6.06188e-13
1.05346e-10
2.28557e-12
1.46228e-12
2.14863e-13
4.79601e-14
1.53109e-13
1.08136e-12
4.24154e-13
-1.15405e-13
2.76652e-13
7.5518e-14
1.413e-13
2.99584e-12
1.96124e-12
2.34916e-12
1.3295e-12
7.5237e-13
2.07045e-12
7.72239e-13
3.64574e-13
1.26032e-12
7.96312e-12
4.88305e-12
1.2274e-11
4.64408e-12
3.34557e-12
1.00341e-11
4.99631e-12
4.04144e-12
7.14718e-12
3.21963e-12
3.06819e-12
2.95011e-12
1.66863e-11
2.28221e-11
4.50407e-10
1.18113e-11
2.41909e-11
4.0905e-10
1.69356e-11
5.28793e-11
3.81305e-10
2.13051e-11
1.03992e-10
3.22662e-10
1.62076e-11
1.34723e-10
1.57186e-10
8.08008e-14
2.81445e-13
3.71798e-14
-1.42979e-14
1.38495e-12
4.85285e-13
-5.12067e-13
3.91811e-12
2.03729e-12
2.36323e-12
8.82518e-12
6.04589e-12
1.16045e-11
1.91925e-11
9.91094e-12
4.61102e-10
3.52335e-11
3.27209e-11
2.83305e-14
1.13179e-13
1.76435e-15
-1.5652e-14
5.57304e-13
1.48558e-13
-1.59524e-13
1.54252e-12
7.53906e-13
-3.51861e-13
3.51389e-12
2.15247e-12
1.14663e-12
6.83753e-12
4.63923e-12
4.94009e-12
1.26427e-11
5.71747e-12
3.27402e-10
2.11727e-11
1.34112e-11
2.02754e-15
1.04266e-14
-4.35679e-16
-1.56486e-15
5.04081e-14
9.82428e-15
-1.58405e-14
1.37413e-13
5.67674e-14
-3.47914e-14
3.07327e-13
1.80596e-13
-4.73462e-14
6.04867e-13
3.98644e-13
1.40008e-13
1.03422e-12
6.76842e-13
5.0031e-13
1.68244e-12
7.0903e-13
1.17461e-10
2.57157e-12
1.09584e-12
1.70528e-13
3.09632e-14
9.41872e-14
8.40022e-13
3.08281e-13
-3.32584e-14
2.06133e-13
5.02718e-14
1.73372e-13
2.3801e-12
1.23938e-12
-7.11517e-13
1.04023e-12
4.15463e-13
-1.66058e-13
5.94318e-13
1.7431e-13
1.44946e-13
5.35906e-12
3.62535e-12
3.30324e-12
2.88793e-12
1.88441e-12
2.97332e-12
2.88443e-12
1.63757e-12
2.9094e-12
1.77731e-12
8.47157e-13
1.85556e-12
1.16455e-11
6.06602e-12
1.54625e-11
7.65988e-12
4.72744e-12
1.50436e-11
1.0023e-11
7.29142e-12
1.36968e-11
1.13355e-11
9.37119e-12
1.08139e-11
7.32641e-12
7.2607e-12
4.57075e-12
2.08783e-11
1.9326e-11
5.36309e-10
1.59261e-11
2.16946e-11
5.01998e-10
2.53831e-11
5.14924e-11
4.83711e-10
3.85212e-11
1.16941e-10
4.75435e-10
5.00958e-11
2.24043e-10
3.92226e-10
3.61682e-11
2.56046e-10
1.55338e-10
5.64285e-14
2.31188e-13
2.21704e-14
-6.47563e-14
1.1367e-12
3.34555e-13
-4.39723e-13
3.14243e-12
1.54119e-12
-9.56706e-13
7.15626e-12
4.3111e-12
3.25437e-12
1.3905e-11
9.22578e-12
1.27853e-11
2.56331e-11
1.16662e-11
5.32214e-10
4.15725e-11
2.61768e-11
1.64273e-14
9.80024e-14
7.87687e-16
-1.98097e-14
4.76269e-13
1.01056e-13
-1.61821e-13
1.2983e-12
5.38775e-13
-3.53087e-13
2.90182e-12
1.6843e-12
-4.62638e-13
5.7015e-12
3.70381e-12
1.39161e-12
9.75031e-12
6.2801e-12
4.99472e-12
1.57474e-11
6.6483e-12
3.6457e-10
2.3827e-11
1.00573e-11
-5.40479e-15
1.38867e-16
1.5698e-14
-3.67093e-15
4.67674e-14
6.87606e-15
-1.40532e-14
1.21162e-13
4.01286e-14
-3.43795e-14
2.65363e-13
1.33111e-13
-5.183e-14
5.14469e-13
3.22829e-13
-5.59143e-14
8.92992e-13
5.95814e-13
1.40465e-13
1.3652e-12
8.53616e-13
4.775e-13
1.98726e-12
8.15895e-13
1.2562e-10
2.78289e-12
7.34361e-13
1.41228e-13
1.98895e-14
6.58488e-14
6.93472e-13
2.14845e-13
-1.0207e-13
1.64399e-13
3.31337e-14
1.02802e-13
1.91508e-12
9.38655e-13
-6.0506e-13
8.10474e-13
3.02925e-13
-5.61337e-14
4.46389e-13
1.17855e-13
2.03472e-13
4.36021e-12
2.59228e-12
-1.31071e-12
2.29663e-12
1.19618e-12
-9.00901e-13
2.2565e-12
9.18993e-13
-2.82773e-13
1.36029e-12
4.39066e-13
1.22949e-13
8.46044e-12
5.5215e-12
4.5433e-12
5.17495e-12
3.47646e-12
4.19618e-12
6.28803e-12
4.08256e-12
4.26333e-12
6.7149e-12
3.82125e-12
4.55602e-12
4.35696e-12
2.07911e-12
2.74604e-12
1.55626e-11
7.11025e-12
1.70568e-11
1.12162e-11
5.87465e-12
1.90251e-11
1.65924e-11
1.03347e-11
2.07911e-11
2.30446e-11
1.7071e-11
2.14739e-11
2.70152e-11
2.30476e-11
1.81078e-11
1.71378e-11
1.69534e-11
6.64797e-12
2.46699e-11
1.54875e-11
6.18641e-10
1.99478e-11
1.8404e-11
5.97467e-10
3.42947e-11
4.63963e-11
5.94132e-10
5.80921e-11
1.15569e-10
6.10085e-10
9.21769e-11
2.65465e-10
6.09325e-10
1.1723e-10
4.61908e-10
4.4599e-10
7.45217e-11
4.49463e-10
1.37857e-10
3.16636e-14
2.00651e-13
1.53147e-14
-6.82642e-14
9.76235e-13
2.31105e-13
-4.51325e-13
2.65868e-12
1.10784e-12
-9.58863e-13
5.93201e-12
3.37124e-12
-1.24968e-12
1.16359e-11
7.36724e-12
3.93771e-12
1.98475e-11
1.24654e-11
1.28796e-11
3.19238e-11
1.34301e-11
5.91844e-10
4.68333e-11
1.96521e-11
-3.93569e-15
3.39819e-15
9.31467e-14
-3.37853e-14
4.3585e-13
7.13274e-14
-1.42111e-13
1.14548e-12
3.81942e-13
-3.47585e-13
2.51056e-12
1.24325e-12
-5.25329e-13
4.8623e-12
2.99701e-12
-5.47673e-13
8.42208e-12
5.52385e-12
1.39268e-12
1.28652e-11
7.91015e-12
4.74893e-12
1.86007e-11
7.60325e-12
3.89458e-10
2.57847e-11
6.74351e-12
-3.60025e-14
5.85025e-15
7.70594e-14
-5.39518e-15
9.04969e-16
1.70737e-14
3.11899e-15
-1.66448e-14
1.16133e-13
2.85496e-14
-3.06386e-14
2.39959e-13
9.61787e-14
-5.27818e-14
4.55461e-13
2.44907e-13
-6.69642e-14
7.83539e-13
4.99254e-13
-7.33841e-14
1.22157e-12
8.1283e-13
1.07436e-13
1.70284e-12
1.03063e-12
4.29775e-13
2.25496e-12
9.14086e-13
1.28469e-10
2.90536e-12
3.62979e-13
1.22945e-13
1.3935e-14
3.60215e-14
5.97467e-13
1.49552e-13
-1.01909e-13
1.36708e-13
2.17038e-14
7.18443e-14
1.62622e-12
6.77182e-13
-6.24773e-13
6.70749e-13
2.12082e-13
-1.41275e-13
3.57727e-13
7.91795e-14
1.12312e-13
3.62382e-12
2.02588e-12
-1.30968e-12
1.85176e-12
9.06334e-13
-7.63576e-13
1.76572e-12
6.72295e-13
-1.19761e-13
1.03669e-12
3.02613e-13
2.24507e-13
7.09979e-12
4.40857e-12
-1.70528e-12
4.214e-12
2.48867e-12
-1.64221e-12
5.0012e-12
2.60423e-12
-1.29924e-12
5.24611e-12
2.19833e-12
-5.73167e-13
3.31709e-12
1.18763e-12
-2.47198e-14
1.20841e-11
7.44868e-12
5.48917e-12
8.17631e-12
5.28941e-12
5.77031e-12
1.12883e-11
7.51428e-12
6.06868e-12
1.47224e-11
9.46188e-12
6.94506e-12
1.67443e-11
9.50389e-12
7.40236e-12
1.10144e-11
5.28758e-12
3.58214e-12
1.93789e-11
8.12727e-12
1.71537e-11
1.49975e-11
6.87219e-12
2.10096e-11
2.43422e-11
1.2848e-11
2.64645e-11
3.84114e-11
2.43274e-11
3.32156e-11
5.60897e-11
4.27323e-11
3.78768e-11
6.57075e-11
5.70464e-11
2.95382e-11
3.93254e-11
3.55081e-11
6.33676e-12
2.78137e-11
1.1637e-11
6.87547e-10
2.35833e-11
1.47625e-11
6.88845e-10
4.30011e-11
3.94476e-11
7.06626e-10
7.87545e-11
1.05054e-10
7.51073e-10
1.40475e-10
2.69409e-10
8.02038e-10
2.2167e-10
5.85358e-10
7.46571e-10
2.53223e-10
8.62186e-10
4.37416e-10
1.35128e-10
7.34613e-10
1.02443e-10
2.78815e-15
1.43688e-14
1.79572e-13
-9.12762e-14
8.8516e-13
1.63898e-13
-3.9121e-13
2.35042e-12
7.88487e-13
-9.53331e-13
5.15133e-12
2.49429e-12
-1.4274e-12
9.95612e-12
5.95314e-12
-1.47778e-12
1.71974e-11
1.09475e-11
3.9388e-12
2.61787e-11
1.56643e-11
1.21386e-11
3.76758e-11
1.51981e-11
6.31527e-10
5.0708e-11
1.31841e-11
-9.87078e-14
5.7129e-14
4.44831e-13
-4.58104e-15
3.75075e-15
8.8589e-14
-1.51919e-13
1.07975e-12
2.72342e-13
-3.06881e-13
2.26942e-12
8.99345e-13
-5.34007e-13
4.31183e-12
2.27496e-12
-6.79331e-13
7.40663e-12
4.62485e-12
-7.25514e-13
1.15178e-11
7.52337e-12
1.05141e-12
1.60309e-11
9.53598e-12
4.24955e-12
2.10968e-11
8.47136e-12
3.97892e-10
2.69163e-11
3.33519e-12
-9.79181e-14
2.21754e-14
1.97724e-13
-5.57617e-14
6.78596e-15
8.66178e-14
4.03282e-14
1.61784e-15
3.88289e-16
1.74532e-14
-2.38241e-15
1.84569e-16
2.84325e-15
9.317e-17
-3.56174e-14
2.34936e-13
6.91838e-14
-4.89854e-14
4.2042e-13
1.80205e-13
-7.02981e-14
7.09561e-13
3.89177e-13
-8.85937e-14
1.10384e-12
7.05599e-13
-1.14324e-13
1.58173e-12
1.04832e-12
3.85463e-14
2.04316e-12
1.20388e-12
3.55226e-13
2.47688e-12
9.87404e-13
1.25519e-10
2.92691e-12
-4.15594e-14
1.1364e-14
4.9435e-15
1.09434e-13
5.40078e-13
1.06142e-13
-1.26082e-13
1.19213e-13
1.52505e-14
3.82742e-14
1.43953e-12
4.8311e-13
-5.38059e-13
5.78826e-13
1.48102e-13
-1.36375e-13
2.98976e-13
5.2731e-14
7.7881e-14
3.15518e-12
1.50118e-12
-1.30867e-12
1.57496e-12
6.54942e-13
-7.90821e-13
1.46523e-12
4.73025e-13
-2.34601e-13
8.37059e-13
2.08427e-13
1.03555e-13
6.08913e-12
3.55847e-12
-1.9493e-12
3.50796e-12
1.94417e-12
-1.64145e-12
4.04434e-12
1.97405e-12
-1.10844e-12
4.13839e-12
1.61637e-12
-3.25744e-13
2.58327e-12
8.38122e-13
1.20276e-13
1.04965e-11
6.53296e-12
-2.01456e-12
6.86708e-12
4.22243e-12
-2.12975e-12
9.19514e-12
5.38549e-12
-2.33029e-12
1.17049e-11
6.08138e-12
-2.16473e-12
1.30608e-11
5.64998e-12
-1.35193e-12
8.44778e-12
3.22879e-12
-6.86767e-13
1.59341e-11
9.3426e-12
5.48978e-12
1.16806e-11
7.12939e-12
6.96618e-12
1.78497e-11
1.14184e-11
8.35879e-12
2.65095e-11
1.73475e-11
1.00852e-11
3.70462e-11
2.33381e-11
1.21546e-11
4.33624e-11
2.41979e-11
1.08375e-11
2.72034e-11
1.27895e-11
2.91507e-12
2.28554e-11
9.12682e-12
1.60974e-11
1.86773e-11
7.82809e-12
2.11039e-11
3.25788e-11
1.49945e-11
2.92857e-11
5.65573e-11
3.02706e-11
4.27189e-11
9.4575e-11
6.15054e-11
6.0343e-11
1.39943e-10
1.09332e-10
6.73188e-11
1.54621e-10
1.27562e-10
3.60869e-11
8.07369e-11
6.05115e-11
2.17315e-13
3.01264e-11
7.80992e-12
7.33269e-10
2.65954e-11
1.10973e-11
7.6519e-10
5.08646e-11
3.16812e-11
8.13966e-10
9.89262e-11
8.97012e-11
8.92545e-10
1.91581e-10
2.48855e-10
9.93734e-10
3.4395e-10
6.20945e-10
1.02909e-09
4.94619e-10
1.16464e-09
7.90917e-10
4.73622e-10
1.43764e-09
3.43608e-10
2.07832e-10
1.09281e-09
5.44541e-11
-1.56727e-13
1.24557e-13
8.33009e-13
-1.6579e-15
7.67633e-15
1.68981e-13
-3.87863e-13
2.18734e-12
5.62964e-13
-8.34248e-13
4.65978e-12
1.80744e-12
-1.4622e-12
8.85536e-12
4.52329e-12
-1.85244e-12
1.51705e-11
9.15323e-12
-1.96745e-12
2.35011e-11
1.48671e-11
2.98575e-12
3.25737e-11
1.88322e-11
1.07088e-11
4.2674e-11
1.67729e-11
6.44538e-10
5.29442e-11
6.52486e-12
-3.00979e-13
2.06138e-13
1.13381e-12
-7.34723e-14
3.01833e-14
4.36118e-13
1.52942e-15
3.02627e-15
8.56566e-14
-3.2415e-13
2.18272e-12
6.47585e-13
-4.89498e-13
3.97673e-12
1.67497e-12
-7.12268e-13
6.71771e-12
3.60585e-12
-9.00329e-13
1.04286e-11
6.52582e-12
-1.14472e-12
1.48977e-11
9.68707e-12
3.44707e-13
1.92056e-11
1.11211e-11
3.4833e-12
2.31547e-11
9.10497e-12
3.88431e-10
2.71115e-11
-3.79848e-13
-2.03251e-13
5.29962e-14
4.07362e-13
-1.60585e-13
2.2854e-14
2.24345e-13
1.17906e-13
-2.89432e-14
7.02568e-15
9.20562e-14
1.68703e-14
1.29625e-15
1.46403e-14
2.45784e-14
4.17173e-15
1.09033e-16
1.68514e-14
-3.67516e-15
4.26014e-17
3.01514e-15
-2.59608e-15
1.85764e-16
2.36405e-15
-2.45514e-15
-5.97118e-14
4.18117e-13
1.31193e-13
-6.8114e-14
6.66373e-13
2.91501e-13
-9.26008e-14
1.02046e-12
5.65196e-13
-1.31222e-13
1.47201e-12
9.46566e-13
-1.91837e-13
1.97991e-12
1.30342e-12
-6.25942e-14
2.38572e-12
1.35767e-12
2.65747e-13
2.63197e-12
1.01664e-12
1.17293e-10
2.83621e-12
-5.04167e-13
7.88385e-14
-1.84803e-13
5.0069e-13
1.19954e-14
6.01082e-15
1.06157e-13
5.12945e-15
-8.40352e-16
1.0349e-13
1.33267e-12
3.4497e-13
-5.19815e-13
5.22614e-13
1.05138e-13
-1.59748e-13
2.61297e-13
3.71259e-14
3.88445e-14
2.85531e-12
1.08895e-12
-1.14018e-12
1.3951e-12
4.67746e-13
-6.77822e-13
1.26704e-12
3.31473e-13
-2.16911e-13
7.05507e-13
1.41587e-13
6.7876e-14
5.42728e-12
2.70547e-12
-2.00462e-12
3.05787e-12
1.44163e-12
-1.64526e-12
3.44586e-12
1.42916e-12
-1.14845e-12
3.44952e-12
1.1459e-12
-4.83153e-13
2.11161e-12
5.92673e-13
-1.73968e-14
9.27976e-12
5.45638e-12
-2.53358e-12
5.89759e-12
3.4062e-12
-2.44183e-12
7.67164e-12
4.20495e-12
-2.34881e-12
9.51809e-12
4.61232e-12
-1.91751e-12
1.04434e-11
4.18406e-12
-1.05414e-12
6.7513e-12
2.35039e-12
-5.3353e-13
1.43351e-11
8.85196e-12
-2.68742e-12
1.01544e-11
6.24822e-12
-2.51415e-12
1.49994e-11
9.11174e-12
-3.00564e-12
2.15984e-11
1.24524e-11
-3.79004e-12
2.94439e-11
1.51478e-11
-4.06016e-12
3.39719e-11
1.48272e-11
-3.55959e-12
2.14225e-11
7.78896e-12
-2.69456e-12
1.98051e-11
1.12075e-11
4.17119e-12
1.53984e-11
8.9331e-12
6.96506e-12
2.55032e-11
1.53729e-11
1.00874e-11
4.19735e-11
2.6299e-11
1.39913e-11
6.70424e-11
4.25276e-11
1.84287e-11
9.72626e-11
5.89987e-11
2.00347e-11
1.09671e-10
5.80131e-11
1.05652e-11
6.03396e-11
2.52591e-11
-1.94626e-12
2.5861e-11
1.00011e-11
1.40999e-11
2.20236e-11
8.75724e-12
1.97401e-11
4.05849e-11
1.70098e-11
2.93685e-11
7.58319e-11
3.51881e-11
4.74628e-11
1.40134e-10
7.67087e-11
7.89639e-11
2.3973e-10
1.60507e-10
1.13389e-10
3.36941e-10
2.57126e-10
9.54339e-11
3.22232e-10
2.28185e-10
1.98047e-11
1.35956e-10
8.13918e-11
-9.2976e-12
3.1459e-11
3.86657e-12
7.48025e-10
2.8809e-11
7.44962e-12
8.15719e-10
5.73717e-11
2.38298e-11
9.03348e-10
1.17114e-10
7.22105e-11
1.02654e-09
2.41425e-10
2.14235e-10
1.18084e-09
4.7425e-10
5.89658e-10
1.29678e-09
7.86652e-10
1.30747e-09
1.15771e-09
9.48756e-10
2.00878e-09
6.57039e-10
7.39973e-10
2.13403e-09
1.88193e-10
2.67847e-10
1.42072e-09
7.24216e-12
-5.11936e-13
4.15707e-13
2.10717e-12
-8.91958e-14
5.3985e-14
8.02434e-13
2.85097e-15
7.84113e-15
1.59825e-13
-8.21364e-13
4.41813e-12
1.30187e-12
-1.32784e-12
8.16781e-12
3.33337e-12
-1.95306e-12
1.37957e-11
7.13892e-12
-2.46532e-12
2.13395e-11
1.28798e-11
-3.12881e-12
3.03368e-11
1.90882e-11
1.02076e-12
3.89321e-11
2.1898e-11
8.56986e-12
4.67586e-11
1.7872e-11
6.28689e-10
5.33258e-11
-7.49035e-13
-6.30799e-13
4.86376e-13
2.33003e-12
-2.20807e-13
1.01848e-13
1.12238e-12
-5.76394e-14
3.31354e-14
4.34711e-13
6.50949e-15
2.27351e-15
8.10515e-14
-5.39064e-13
3.88359e-12
1.22009e-12
-6.79524e-13
6.30219e-12
2.70191e-12
-9.40273e-13
9.65512e-12
5.22708e-12
-1.33491e-12
1.38881e-11
8.73917e-12
-1.9357e-12
1.86134e-11
1.20232e-11
-6.88446e-13
2.23807e-11
1.2521e-11
2.57608e-12
2.45786e-11
9.32761e-12
3.62857e-10
2.62655e-11
-4.62569e-12
-3.63461e-13
1.00651e-13
7.33917e-13
-3.40764e-13
5.34953e-14
4.64851e-13
2.52645e-13
-9.60503e-14
2.61072e-14
2.41585e-13
5.97318e-14
4.32487e-15
3.80687e-14
7.68104e-14
-2.01514e-14
7.35349e-15
9.26764e-14
1.22898e-14
1.26196e-15
1.6281e-14
1.4011e-14
1.22588e-15
1.24164e-14
1.1124e-14
6.57177e-15
-2.08433e-16
1.55524e-14
-5.06021e-15
-2.14918e-17
2.98566e-15
-3.62322e-15
1.16251e-17
2.61542e-15
-2.85795e-15
1.73275e-16
1.67633e-15
-4.30371e-15
-8.83948e-14
6.71009e-13
2.14942e-13
-9.15837e-14
9.7239e-13
4.31166e-13
-1.32997e-13
1.38859e-12
7.81617e-13
-2.10703e-13
1.90395e-12
1.23328e-12
-3.1313e-13
2.43226e-12
1.57005e-12
-1.81607e-13
2.71175e-12
1.45951e-12
1.91697e-13
2.68768e-12
9.73532e-13
1.05158e-10
2.62737e-12
-1.02954e-12
2.51776e-13
-6.13509e-13
1.26133e-12
7.74045e-14
-2.10445e-13
4.82855e-13
3.24851e-14
-9.84748e-14
4.82617e-13
2.83325e-14
5.78286e-15
2.33201e-13
5.16705e-15
-4.13292e-16
1.00565e-13
5.48272e-15
3.23249e-15
9.763e-14
2.6906e-12
7.84172e-13
-1.09583e-12
1.28867e-12
3.33991e-13
-6.42228e-13
1.14277e-12
2.35359e-13
-2.33706e-13
6.19257e-13
9.9854e-14
2.5266e-14
5.00592e-12
1.99486e-12
-1.81235e-12
2.76784e-12
1.04626e-12
-1.42865e-12
3.05505e-12
1.02193e-12
-9.77448e-13
2.99405e-12
8.0717e-13
-4.26995e-13
1.80213e-12
4.11169e-13
-3.37416e-14
8.45434e-12
4.25645e-12
-2.6786e-12
5.26158e-12
2.59043e-12
-2.51739e-12
6.69608e-12
3.12047e-12
-2.36097e-12
8.13402e-12
3.34919e-12
-1.96761e-12
8.77162e-12
2.99636e-12
-1.21497e-12
5.62652e-12
1.69373e-12
-5.86229e-13
1.30434e-11
7.66118e-12
-3.37842e-12
8.98834e-12
5.21555e-12
-3.17681e-12
1.29055e-11
7.34471e-12
-3.48765e-12
1.80955e-11
9.71197e-12
-3.94553e-12
2.41747e-11
1.14933e-11
-3.95742e-12
2.7695e-11
1.10765e-11
-3.50317e-12
1.76311e-11
5.82627e-12
-2.56821e-12
1.84768e-11
1.13397e-11
-4.2881e-12
1.3864e-11
8.45607e-12
-3.36078e-12
2.21859e-11
1.34593e-11
-3.54423e-12
3.52958e-11
2.09652e-11
-4.84071e-12
5.46568e-11
3.05607e-11
-6.8171e-12
7.76213e-11
3.85927e-11
-8.18405e-12
8.76604e-11
3.57048e-11
-9.46482e-12
4.95616e-11
1.47059e-11
-6.62204e-12
2.36296e-11
1.30018e-11
1.45793e-12
1.91278e-11
1.07039e-11
5.29622e-12
3.36084e-11
1.92372e-11
1.00774e-11
5.99789e-11
3.53285e-11
1.6911e-11
1.0638e-10
6.41998e-11
2.60727e-11
1.77461e-10
1.0667e-10
3.30264e-11
2.49913e-10
1.41072e-10
2.40045e-11
2.47191e-10
1.14753e-10
-3.88649e-12
1.07947e-10
3.6376e-11
-1.03125e-11
2.83011e-11
1.05866e-11
1.11424e-11
2.49092e-11
9.56151e-12
1.71955e-11
4.78501e-11
1.89399e-11
2.73317e-11
9.45297e-11
3.96296e-11
4.75119e-11
1.88498e-10
8.8633e-11
8.84669e-11
3.58507e-10
2.01598e-10
1.53616e-10
5.87171e-10
3.91778e-10
1.7822e-10
7.13128e-10
4.82592e-10
7.66558e-11
5.46132e-10
3.1287e-10
-1.78306e-11
1.82203e-10
9.22265e-11
-1.58786e-11
3.16837e-11
-4.47513e-13
7.2936e-10
3.00825e-11
3.68897e-12
8.31804e-10
6.21466e-11
1.60029e-11
9.62212e-10
1.3213e-10
5.43773e-11
1.13736e-09
2.86232e-10
1.73247e-10
1.35484e-09
6.01352e-10
5.15639e-10
1.54633e-09
1.10335e-09
1.29433e-09
1.50787e-09
1.54244e-09
2.3521e-09
1.01488e-09
1.50343e-09
2.9965e-09
3.7208e-10
9.59707e-10
2.75394e-09
2.55221e-11
2.90332e-10
1.55817e-09
-3.55667e-11
-1.0757e-12
9.58932e-13
4.31984e-12
-2.82999e-13
1.75135e-13
2.04823e-12
-8.50516e-14
6.00017e-14
7.77694e-13
8.52826e-15
7.61943e-15
1.50196e-13
-1.35533e-12
7.85832e-12
2.42767e-12
-1.84286e-12
1.29402e-11
5.35225e-12
-2.58327e-12
1.98053e-11
1.03162e-11
-3.66678e-12
2.83516e-11
1.71969e-11
-5.31143e-12
3.77791e-11
2.36169e-11
-1.83549e-12
4.52247e-11
2.45791e-11
6.087e-12
4.95413e-11
1.81456e-11
5.87098e-10
5.16463e-11
-9.05244e-12
-1.10574e-12
9.19521e-13
4.19273e-12
-4.67402e-13
2.37792e-13
2.32074e-12
-1.89071e-13
1.16564e-13
1.13198e-12
-4.44579e-14
3.5366e-14
4.25931e-13
1.10891e-14
1.34892e-15
7.51919e-14
-7.89467e-13
6.23043e-12
1.99292e-12
-9.138e-13
9.19063e-12
3.98863e-12
-1.35047e-12
1.31186e-11
7.21402e-12
-2.14351e-12
1.79229e-11
1.13626e-11
-3.16831e-12
2.28044e-11
1.44548e-11
-1.89874e-12
2.53781e-11
1.34386e-11
1.83486e-12
2.50675e-11
8.88256e-12
3.25482e-10
2.43228e-11
-9.4324e-12
-5.82671e-13
1.65942e-13
1.18838e-12
-6.18825e-13
1.01451e-13
8.41065e-13
4.63735e-13
-2.10586e-13
6.27809e-14
5.04556e-13
1.34212e-13
1.01167e-14
7.89843e-14
1.67869e-13
-7.61438e-14
2.89467e-14
2.46758e-13
4.93806e-14
4.83844e-15
4.29448e-14
5.12804e-14
4.06503e-15
3.2416e-14
4.1558e-14
-1.28541e-14
7.56961e-15
8.98115e-14
7.94412e-15
1.30325e-15
1.68523e-14
1.03947e-14
1.13121e-15
1.44849e-14
1.0824e-14
1.07212e-15
9.23367e-15
9.92861e-16
7.9097e-15
-4.4679e-16
1.38636e-14
-5.76983e-15
-9.36165e-17
2.73709e-15
-4.71702e-15
-5.95447e-17
2.62955e-15
-3.57643e-15
-2.97543e-17
1.97446e-15
-3.12521e-15
1.46359e-16
8.87467e-16
-5.33638e-15
-1.24502e-13
9.89564e-13
3.22267e-13
-1.2954e-13
1.34046e-12
6.08852e-13
-2.09402e-13
1.83718e-12
1.05787e-12
-3.44068e-13
2.43654e-12
1.57313e-12
-4.7578e-13
2.942e-12
1.8156e-12
-2.96939e-13
2.9791e-12
1.46507e-12
1.60756e-13
2.60855e-12
8.31645e-13
9.08292e-11
2.30789e-12
-1.57994e-12
5.72282e-13
-1.28794e-12
2.58236e-12
2.42584e-13
-7.04221e-13
1.21421e-12
1.02209e-13
-3.17412e-13
1.22602e-12
1.71731e-13
-2.65022e-13
1.05396e-12
3.13577e-14
-1.07188e-13
4.65381e-13
3.61211e-14
-9.79167e-14
4.64849e-13
7.36904e-14
-4.11541e-15
5.55492e-13
1.17549e-14
-2.27647e-16
2.21265e-13
5.59199e-15
3.29717e-15
9.49118e-14
5.65915e-15
8.76126e-15
9.17426e-14
4.78475e-12
1.45218e-12
-1.80213e-12
2.6012e-12
7.53312e-13
-1.3485e-12
2.81551e-12
7.29645e-13
-8.96943e-13
2.69897e-12
5.73099e-13
-4.11845e-13
1.59417e-12
2.90235e-13
-5.69403e-14
7.92877e-12
3.1922e-12
-2.51461e-12
4.85303e-12
1.91051e-12
-2.26804e-12
6.06285e-12
2.26594e-12
-2.03941e-12
7.22414e-12
2.39951e-12
-1.65986e-12
7.66221e-12
2.12509e-12
-1.03142e-12
4.88145e-12
1.19623e-12
-4.84766e-13
1.21263e-11
6.13592e-12
-3.54562e-12
8.19584e-12
4.06887e-12
-3.36453e-12
1.15263e-11
5.58735e-12
-3.60497e-12
1.583e-11
7.21615e-12
-3.9624e-12
2.07684e-11
8.38154e-12
-3.94634e-12
2.35644e-11
8.01673e-12
-3.40723e-12
1.50763e-11
4.22852e-12
-2.25981e-12
1.72987e-11
1.02052e-11
-5.03268e-12
1.26287e-11
7.31457e-12
-4.24218e-12
1.96696e-11
1.12263e-11
-4.54213e-12
3.04729e-11
1.68739e-11
-5.82651e-12
4.61319e-11
2.3779e-11
-7.7062e-12
6.46786e-11
2.92574e-11
-9.19535e-12
7.32632e-11
2.67837e-11
-1.00631e-11
4.22085e-11
1.08828e-11
-6.09771e-12
2.29532e-11
1.39955e-11
-7.29083e-12
1.78562e-11
1.08196e-11
-5.37996e-12
3.02805e-11
1.81876e-11
-4.7611e-12
5.22313e-11
3.08666e-11
-5.69786e-12
8.95904e-11
5.10336e-11
-8.52333e-12
1.45334e-10
7.64442e-11
-1.25415e-11
2.03062e-10
9.18762e-11
-1.75036e-11
2.05295e-10
6.914e-11
-2.2002e-11
9.2418e-11
2.06004e-11
-1.16932e-11
2.73842e-11
1.45585e-11
-2.47515e-12
2.28002e-11
1.24025e-11
1.86841e-12
4.17151e-11
2.30167e-11
7.65179e-12
7.89824e-11
4.40981e-11
1.68553e-11
1.52032e-10
8.58707e-11
3.17061e-11
2.82603e-10
1.59892e-10
4.87558e-11
4.60812e-10
2.53669e-10
4.67894e-11
5.69677e-10
2.80636e-10
1.57387e-12
4.45557e-10
1.66535e-10
-3.34687e-11
1.48711e-10
3.94496e-11
-1.62693e-11
2.99436e-11
1.06749e-11
7.73891e-12
2.72435e-11
1.00868e-11
1.34562e-11
5.40951e-11
2.05868e-11
2.36003e-11
1.11435e-10
4.37569e-11
4.38998e-11
2.35261e-10
9.86221e-11
8.84948e-11
4.84566e-10
2.31354e-10
1.75498e-10
8.87806e-10
5.02003e-10
2.5894e-10
1.25997e-09
7.69856e-10
1.73431e-10
1.21758e-09
6.78498e-10
-3.11388e-12
7.33595e-10
3.52732e-10
-5.22211e-11
1.97731e-10
9.5476e-11
-1.87526e-11
3.06779e-11
-5.36716e-12
6.81006e-10
3.02943e-11
-4.27694e-13
8.10794e-10
6.48865e-11
7.92668e-12
9.8045e-10
1.43114e-10
3.65435e-11
1.20962e-09
3.23059e-10
1.30753e-10
1.49669e-09
7.15112e-10
4.20665e-10
1.76899e-09
1.41427e-09
1.16339e-09
1.82039e-09
2.20143e-09
2.42606e-09
1.37603e-09
2.47756e-09
3.55462e-09
5.9603e-10
1.96175e-09
3.8399e-09
5.10434e-11
1.04185e-09
3.0093e-09
-1.23909e-10
2.65011e-10
1.41996e-09
-7.91717e-11
-1.85271e-12
1.79719e-12
7.76708e-12
-5.99307e-13
4.02882e-13
4.22402e-12
-2.84699e-13
1.97978e-13
2.0059e-12
-7.50955e-14
6.51445e-14
7.50816e-13
1.4497e-14
7.09882e-15
1.39699e-13
-1.96808e-12
1.26005e-11
3.946e-12
-2.47939e-12
1.88483e-11
7.87483e-12
-3.71415e-12
2.68416e-11
1.41898e-11
-5.88893e-12
3.64446e-11
2.22769e-11
-8.68975e-12
4.60705e-11
2.82925e-11
-5.16163e-12
5.1086e-11
2.62973e-11
4.09388e-12
5.043e-11
1.7103e-11
5.26874e-10
4.77919e-11
-1.83959e-11
-1.72996e-12
1.51261e-12
6.78462e-12
-8.3382e-13
4.50129e-13
4.19541e-12
-4.074e-13
2.75896e-13
2.35824e-12
-1.62517e-13
1.29577e-13
1.12415e-12
-3.33374e-14
3.71508e-14
4.10618e-13
1.45529e-14
6.02848e-16
6.79526e-14
-1.10282e-12
9.18015e-12
2.98174e-12
-1.29596e-12
1.26534e-11
5.62026e-12
-2.1241e-12
1.73127e-11
9.73904e-12
-3.49452e-12
2.28607e-11
1.44569e-11
-4.81369e-12
2.7488e-11
1.66828e-11
-3.06513e-12
2.78042e-11
1.34701e-11
1.53281e-12
2.4296e-11
7.5373e-12
2.81511e-10
2.13511e-11
-1.44355e-11
-8.59843e-13
2.50848e-13
1.7645e-12
-1.01966e-12
1.68077e-13
1.3657e-12
7.75726e-13
-3.86759e-13
1.20476e-13
9.1809e-13
2.52044e-13
1.91929e-14
1.4299e-13
3.11672e-13
-1.71356e-13
7.07942e-14
5.20009e-13
1.1406e-13
1.17364e-14
8.98388e-14
1.16461e-13
9.50739e-15
6.73448e-14
9.50853e-14
-6.02554e-14
3.15813e-14
2.43186e-13
3.98182e-14
5.35004e-15
4.51098e-14
4.31696e-14
4.47057e-15
3.83896e-14
4.19691e-14
3.54149e-15
2.43011e-14
1.47898e-14
-1.02778e-14
7.8832e-15
8.51164e-14
6.64582e-15
1.32137e-15
1.63605e-14
7.02168e-15
1.15198e-15
1.52788e-14
8.39073e-15
9.12227e-16
1.15565e-14
7.56036e-15
8.55228e-16
5.62757e-15
-5.34236e-15
9.10157e-15
-6.66603e-16
1.18556e-14
-6.42246e-15
-1.46066e-16
2.41582e-15
-5.30146e-15
-1.39238e-16
2.39713e-15
-4.34383e-15
-1.08378e-16
2.02304e-15
-3.51535e-15
-7.66893e-17
1.1664e-15
-3.32605e-15
1.08393e-16
1.38066e-16
-5.58178e-15
-1.78206e-13
1.37847e-12
4.62456e-13
-1.98004e-13
1.79748e-12
8.46576e-13
-3.49256e-13
2.42354e-12
1.42016e-12
-5.43097e-13
3.10787e-12
1.95042e-12
-6.70569e-13
3.48668e-12
1.97861e-12
-3.86145e-13
3.11867e-12
1.34111e-12
1.68447e-13
2.37468e-12
5.96444e-13
7.59844e-11
1.90264e-12
-2.09939e-12
1.06593e-12
-2.20274e-12
4.64116e-12
5.47617e-13
-1.47618e-12
2.48442e-12
2.32341e-13
-6.7148e-13
2.52441e-12
5.27249e-13
-8.8925e-13
2.64503e-12
9.72622e-14
-3.48746e-13
1.17965e-12
1.14864e-13
-3.29572e-13
1.19216e-12
4.13161e-13
-3.92971e-13
2.48747e-12
6.85124e-14
-1.25477e-13
1.01549e-12
3.48666e-14
-1.09477e-13
4.4767e-13
3.94832e-14
-9.09154e-14
4.46851e-13
2.08172e-13
-6.19525e-14
1.44391e-12
2.95272e-14
-3.51178e-15
5.29259e-13
1.28452e-14
2.57658e-15
2.09145e-13
5.87325e-15
8.57935e-15
8.92244e-14
5.68553e-15
1.50547e-14
8.55049e-14
7.66923e-12
2.35203e-12
-2.60835e-12
4.62539e-12
1.39042e-12
-2.21158e-12
5.68174e-12
1.63113e-12
-1.86884e-12
6.64117e-12
1.71268e-12
-1.45352e-12
6.91956e-12
1.50785e-12
-8.86753e-13
4.3741e-12
8.43151e-13
-3.92589e-13
1.1538e-11
4.68461e-12
-3.38344e-12
7.68556e-12
3.05194e-12
-3.14573e-12
1.06315e-11
4.122e-12
-3.22933e-12
1.43435e-11
5.24459e-12
-3.39794e-12
1.85083e-11
6.02119e-12
-3.29579e-12
2.0796e-11
5.72605e-12
-2.79262e-12
1.33546e-11
3.01445e-12
-1.77736e-12
1.64032e-11
8.41767e-12
-5.10044e-12
1.17502e-11
5.85792e-12
-4.4561e-12
1.79531e-11
8.75858e-12
-4.81915e-12
2.72675e-11
1.28421e-11
-6.02545e-12
4.05174e-11
1.76981e-11
-7.66444e-12
5.6089e-11
2.14383e-11
-8.77811e-12
6.35696e-11
1.94923e-11
-8.97702e-12
3.71601e-11
7.82438e-12
-5.03557e-12
2.21714e-11
1.31816e-11
-8.08349e-12
1.67337e-11
9.73122e-12
-6.3267e-12
2.76219e-11
1.5721e-11
-6.07828e-12
4.64449e-11
2.57074e-11
-7.58914e-12
7.78192e-11
4.09483e-11
-1.12245e-11
1.24113e-10
5.91677e-11
-1.63953e-11
1.72702e-10
6.91664e-11
-2.12182e-11
1.76978e-10
5.0822e-11
-2.16846e-11
8.12908e-11
1.49209e-11
-9.891e-12
2.78937e-11
1.67196e-11
-1.19233e-11
2.21551e-11
1.33362e-11
-9.16234e-12
3.89647e-11
2.32354e-11
-7.67728e-12
7.12434e-11
4.15901e-11
-7.74538e-12
1.32669e-10
7.46836e-11
-9.98458e-12
2.39266e-10
1.26075e-10
-1.48164e-11
3.83943e-10
1.79469e-10
-2.32645e-11
4.80344e-10
1.79901e-10
-3.89305e-11
3.85316e-10
9.91531e-11
-4.0313e-11
1.30346e-10
2.1536e-11
-1.48637e-11
3.08454e-11
1.55373e-11
-7.04223e-12
2.63902e-11
1.387e-11
-3.0893e-12
4.96645e-11
2.6628e-11
2.68788e-12
9.78872e-11
5.26139e-11
1.26839e-11
1.99917e-10
1.06658e-10
3.14117e-11
4.03931e-10
2.12128e-10
6.01053e-11
7.37449e-10
3.76953e-10
7.58299e-11
1.05865e-09
5.06368e-10
2.23781e-11
1.03148e-09
4.1112e-10
-5.69142e-11
6.15523e-10
1.82039e-10
-5.79844e-11
1.61348e-10
3.80964e-11
-1.79818e-11
3.04372e-11
9.98177e-12
5.02776e-12
2.88042e-11
1.01348e-11
9.18111e-12
5.91236e-11
2.16249e-11
1.81812e-11
1.25881e-10
4.7172e-11
3.74189e-11
2.77268e-10
1.07301e-10
8.10124e-11
6.05831e-10
2.52865e-10
1.76266e-10
1.20705e-09
5.75964e-10
3.08758e-10
1.92451e-09
1.02238e-09
2.83343e-10
2.1673e-09
1.11669e-09
4.5503e-11
1.64074e-09
7.64386e-10
-9.37586e-11
7.9755e-10
3.61604e-10
-7.40466e-11
1.75954e-10
8.99835e-11
-1.96784e-11
2.83721e-11
-1.08766e-11
6.11271e-10
2.93276e-11
-5.11963e-12
7.56944e-10
6.53317e-11
-9.19014e-13
9.55121e-10
1.49383e-10
1.81097e-11
1.2308e-09
3.49833e-10
8.79885e-11
1.58722e-09
8.07883e-10
3.18881e-10
1.94451e-09
1.69189e-09
9.64844e-10
2.07981e-09
2.85726e-09
2.25712e-09
1.69746e-09
3.57792e-09