/*--------------------------------*- C++ -*----------------------------------*\
  =========                 |
  \\      /  F ield         | OpenFOAM: The Open Source CFD Toolbox
   \\    /   O peration     | Website:  https://openfoam.org
    \\  /    A nd           | Version:  7
     \\/     M anipulation  |
\*---------------------------------------------------------------------------*/
FoamFile
{
    version     2.0;
    format      ascii;
    class       volVectorField;
    location    "200";
    object      U;
}
// * * * * * * * * * * * * * * * * * * * * * * * * * * * * * * * * * * * * * //

dimensions      [0 1 -1 0 0 0 0];

internalField   nonuniform List<vector> 
43929
(
(0.000263516 0.000595911 -0.000250247)
(0.000953364 0.0022738 -0.000984604)
(3.98834e-06 0.000303281 -3.98548e-07)
(0.000414389 0.00107514 -0.000272047)
(0.00147403 0.00401473 -0.00164239)
(1.56255e-05 0.00117966 -6.20642e-06)
(0.00158059 0.00429876 -0.00112837)
(2.51838e-09 8.50834e-05 -1.71942e-07)
(2.31252e-05 0.000621011 -8.13838e-07)
(0.000383927 0.00135016 -0.000270346)
(0.00167937 0.00498765 -0.00197475)
(2.86396e-05 0.00215129 -2.32791e-05)
(0.00275664 0.0080479 -0.00216548)
(5.11405e-07 0.000347268 -3.14792e-06)
(9.54826e-05 0.00252995 -1.10662e-05)
(0.00153787 0.00546658 -0.00113906)
(-1.04155e-06 7.69424e-05 -2.16394e-07)
(8.47368e-06 0.000230115 -2.04017e-07)
(4.79104e-05 0.000864418 -9.65692e-07)
(0.000363296 0.00150359 -0.000269584)
(3.66573e-05 0.00273145 -3.55532e-05)
(0.00337599 0.0103406 -0.00279666)
(0.00176591 0.00548482 -0.00214003)
(2.34078e-06 0.000678199 -1.32069e-05)
(0.000188747 0.00488911 -4.67806e-05)
(0.00287497 0.0104343 -0.00224777)
(-2.85436e-06 0.000310366 -1.60769e-06)
(3.66999e-05 0.000961228 -4.47152e-06)
(0.000200854 0.00356543 -1.44472e-05)
(0.00147329 0.00612098 -0.00113507)
(-1.40218e-06 5.04264e-05 -2.4208e-07)
(3.61953e-06 0.000196447 -4.1501e-08)
(3.17707e-05 0.000384682 -1.70571e-07)
(7.21692e-05 0.00104285 -1.04092e-06)
(0.000323206 0.00157906 -0.000269215)
(4.01335e-06 0.00090081 -2.42314e-05)
(0.000251862 0.00641857 -7.93614e-05)
(4.10422e-05 0.00303613 -4.18355e-05)
(0.00368091 0.0135812 -0.0029811)
(0.0036811 0.0115564 -0.00312765)
(0.0018515 0.0060801 -0.00232893)
(-2.32139e-06 0.000596414 -5.06587e-06)
(7.69245e-05 0.00193243 -2.11367e-05)
(0.00040603 0.00701994 -6.42035e-05)
(0.00281679 0.0117882 -0.0022429)
(-4.13828e-06 0.000206787 -2.05122e-06)
(1.85051e-05 0.000815895 -4.08203e-08)
(0.000133472 0.00161637 -4.4787e-06)
(0.000304855 0.0043258 -1.6304e-05)
(0.00131932 0.00644523 -0.00113309)
(-1.63586e-06 3.86678e-05 -2.70013e-07)
(3.00111e-06 0.000140727 -3.88593e-08)
(2.4356e-05 0.000320971 8.8458e-08)
(7.05044e-05 0.000541107 -1.84556e-07)
(9.22897e-05 0.00116155 -1.01227e-06)
(0.00027697 0.00160607 -0.00026904)
(-7.53969e-07 0.000784347 -6.81454e-06)
(0.000106067 0.0026091 -4.05539e-05)
(4.94794e-06 0.00102383 -3.12181e-05)
(0.000549779 0.00933082 -0.000113097)
(0.000286668 0.00724733 -9.85736e-05)
(4.67024e-05 0.0034102 -4.98277e-05)
(0.00366694 0.0154415 -0.00298364)
(0.00410455 0.0152764 -0.0033813)
(0.004033 0.0130539 -0.0035326)
(0.00194003 0.00702197 -0.00258681)
(-4.27243e-06 0.000406775 -6.93983e-06)
(4.62079e-05 0.00162607 1.02293e-06)
(0.000269879 0.0032787 -2.25885e-05)
(0.000623412 0.00859275 -7.41872e-05)
(0.0025519 0.0124684 -0.0022366)
(-4.89225e-06 0.0001599 -2.06193e-06)
(1.65407e-05 0.000589033 -3.05463e-07)
(0.00010462 0.00134361 1.98312e-06)
(0.000293653 0.00227921 -4.86467e-06)
(0.000391134 0.00483221 -1.6293e-05)
(0.0011339 0.00656422 -0.00113127)
(-1.8727e-06 2.95209e-05 -2.80273e-07)
(2.20401e-06 0.000112941 -3.03873e-08)
(2.53455e-05 0.000242771 1.32649e-07)
(6.55905e-05 0.000451521 1.55573e-07)
(0.000117991 0.000684216 -2.17824e-07)
(0.000110654 0.00123113 -9.17528e-07)
(0.0002259 0.00160746 -0.000268968)
(-2.94339e-06 0.000543037 -1.05945e-05)
(6.93801e-05 0.00218301 3.62486e-06)
(3.56072e-07 0.000887265 -7.39745e-06)
(0.00036506 0.00445302 -4.46832e-05)
(0.00012255 0.00298766 -5.31981e-05)
(6.11697e-06 0.00118124 -4.0764e-05)
(0.000850859 0.011492 -0.000133137)
(0.000630234 0.0105995 -0.000142913)
(0.000331016 0.00828904 -0.000124833)
(5.70405e-05 0.00403202 -6.56477e-05)
(0.00335209 0.0163867 -0.00297578)
(0.00412409 0.0174252 -0.00339088)
(0.00462163 0.0173909 -0.00388454)
(0.00454539 0.0155327 -0.00419695)
(0.00197677 0.00833884 -0.00283581)
(-5.28042e-06 0.000318316 -6.63947e-06)
(4.39928e-05 0.00118839 -8.67817e-08)
(0.000218168 0.00270969 9.8367e-06)
(0.000586766 0.00464116 -2.49981e-05)
(0.000803752 0.0096432 -7.50897e-05)
(0.00220493 0.0127278 -0.00222862)
(-5.69696e-06 0.000123885 -2.08099e-06)
(1.38195e-05 0.000474482 1.60329e-07)
(0.000109412 0.00102154 2.44807e-06)
(0.000274856 0.00189703 3.10355e-06)
(0.000490368 0.00288473 -5.46473e-06)
(0.000468088 0.00512968 -1.4909e-05)
(0.000926354 0.0065741 -0.00112997)
(-1.98614e-06 2.46015e-05 -2.62649e-07)
(1.57851e-06 9.25885e-05 -6.36836e-09)
(2.49322e-05 0.000200708 1.72774e-07)
(7.17704e-05 0.000357341 2.40334e-07)
(0.000126368 0.000581443 1.71378e-07)
(0.000167788 0.000802708 -2.28547e-07)
(0.000129948 0.00126966 -8.0584e-07)
(0.000175117 0.00160036 -0.000268932)
(-3.93591e-06 0.000428196 -9.51121e-06)
(6.7812e-05 0.00160904 1.28692e-06)
(-1.95553e-06 0.000618768 -1.24601e-05)
(0.000300643 0.0036662 1.934e-05)
(8.30894e-05 0.00249292 5.66974e-06)
(2.02041e-06 0.00101806 -7.8062e-06)
(0.000788042 0.00632036 -4.98518e-05)
(0.000418227 0.00511365 -5.93202e-05)
(0.000143977 0.00347637 -7.10759e-05)
(8.12468e-06 0.00146278 -5.86057e-05)
(0.00110068 0.0129391 -0.000136031)
(0.000979252 0.0130946 -0.000169696)
(0.000733998 0.0122111 -0.000184445)
(0.000409202 0.0100865 -0.000178421)
(7.47012e-05 0.00498368 -9.79719e-05)
(0.00290847 0.0167565 -0.00296162)
(0.0037878 0.0185234 -0.00338295)
(0.00469312 0.0199164 -0.00390727)
(0.00545938 0.0209709 -0.00474614)
(0.00513801 0.0192291 -0.0051452)
(0.00193006 0.00986755 -0.00292445)
(-6.45164e-06 0.000251474 -6.62565e-06)
(4.02502e-05 0.000962989 2.5062e-06)
(0.000229653 0.00207738 1.2207e-05)
(0.000553996 0.00384788 1.49302e-05)
(0.00097631 0.00588274 -2.80368e-05)
(0.000958937 0.0102624 -6.90073e-05)
(0.00180663 0.0127611 -0.00222241)
(-5.99462e-06 0.00010395 -1.76191e-06)
(1.16671e-05 0.000391209 5.36868e-07)
(0.000108509 0.000846608 3.51623e-06)
(0.000300856 0.00150718 4.39579e-06)
(0.000525898 0.00244741 3.33745e-06)
(0.000696636 0.00338453 -5.55605e-06)
(0.000546741 0.0052943 -1.30367e-05)
(0.000718691 0.00654693 -0.00112887)
(-1.46406e-06 2.20925e-05 9.78941e-07)
(1.41275e-06 8.15189e-05 1.06476e-07)
(2.46234e-05 0.000170928 2.28347e-07)
(7.40909e-05 0.000303351 3.15996e-07)
(0.000143294 0.000479678 2.8696e-07)
(0.000201139 0.000701962 1.70584e-07)
(0.000217135 0.000898038 -1.96859e-07)
(0.000150851 0.00129646 -7.02597e-07)
(0.000125793 0.00159649 -0.000268897)
(-5.21114e-06 0.00034226 -9.49642e-06)
(6.41809e-05 0.00130931 6.78858e-06)
(-2.89402e-06 0.000489699 -1.07674e-05)
(0.000317646 0.00282731 2.35821e-05)
(8.20549e-05 0.0018452 2.50434e-06)
(-4.58255e-07 0.000716139 -1.46007e-05)
(0.000748001 0.00522697 2.8539e-05)
(0.000347392 0.00420241 2.56578e-05)
(0.000101472 0.00289137 8.89128e-06)
(5.64937e-06 0.00124944 -7.70571e-06)
(0.00130782 0.00801912 -5.57714e-05)
(0.000899813 0.00726756 -6.64241e-05)
(0.000486711 0.00597026 -8.03626e-05)
(0.000183134 0.00436225 -0.000107011)
(1.17572e-05 0.00194974 -8.81289e-05)
(0.00131049 0.0137944 -0.000125307)
(0.0012689 0.0147677 -0.000174141)
(0.00114606 0.0151418 -0.000221113)
(0.000921056 0.0150434 -0.000271168)
(0.000538029 0.0129786 -0.000289028)
(9.83818e-05 0.00627417 -0.000153202)
(0.00238857 0.0168146 -0.00294998)
(0.00329377 0.0189583 -0.00336501)
(0.00433614 0.0212166 -0.00390009)
(0.00565101 0.0241875 -0.00480907)
(0.00664169 0.0265171 -0.00608357)
(0.00558126 0.0238424 -0.00612214)
(0.00185541 0.011221 -0.00273774)
(-6.75916e-06 0.000213193 -5.43748e-06)
(3.71856e-05 0.000800699 4.25695e-06)
(0.000230262 0.00172855 1.77453e-05)
(0.000606557 0.00307643 2.14225e-05)
(0.00104885 0.00497881 1.59491e-05)
(0.00138429 0.00690217 -2.84083e-05)
(0.00111032 0.0106047 -6.01649e-05)
(0.00140365 0.0127146 -0.00221699)
(-4.75936e-06 9.21797e-05 2.27242e-06)
(1.13648e-05 0.000344342 2.0455e-06)
(0.00010781 0.000723447 4.47944e-06)
(0.000311364 0.00128193 6.12541e-06)
(0.000595944 0.00202539 5.31413e-06)
(0.000834764 0.00295684 3.30175e-06)
(0.000900522 0.00378447 -4.8058e-06)
(0.000630603 0.00540751 -1.11856e-05)
(0.000516493 0.00653188 -0.00112796)
(3.09102e-06 7.92933e-05 4.83127e-06)
(-1.02246e-06 3.87723e-05 4.56877e-06)
(2.48245e-05 0.000155153 4.59041e-07)
(7.55369e-05 0.000265832 4.0896e-07)
(0.000152749 0.000417714 3.96269e-07)
(0.000236189 0.00060215 3.03241e-07)
(0.000284493 0.000812051 1.93221e-07)
(0.000266472 0.000982853 -1.24435e-07)
(0.000171593 0.00132791 -6.10288e-07)
(7.63509e-05 0.00160243 -0.000268843)
(-5.49187e-06 0.000291975 -7.52153e-06)
(6.10461e-05 0.0010947 9.94668e-06)
(-4.20664e-06 0.000393564 -1.07583e-05)
(0.000320548 0.00235937 3.46963e-05)
(7.86554e-05 0.00150459 1.00115e-05)
(-1.27869e-06 0.000569218 -1.19957e-05)
(0.000818932 0.00419789 4.0768e-05)
(0.000367653 0.00325035 3.10824e-05)
(0.000101296 0.00215105 4.66577e-06)
(2.83118e-06 0.000891875 -1.73177e-05)
(0.00140615 0.00677696 3.02549e-05)
(0.000856202 0.00600321 3.73976e-05)
(0.000408269 0.00489582 3.48154e-05)
(0.000136566 0.00360885 1.65571e-05)
(1.30562e-05 0.00164397 -4.29541e-06)
(0.00185136 0.00940856 -5.63383e-05)
(0.0014914 0.0092254 -7.42634e-05)
(0.00104315 0.00849842 -9.04429e-05)
(0.000610067 0.00753469 -0.00012434)
(0.00025223 0.00592062 -0.00017436)
(1.93647e-05 0.00274698 -0.000125157)
(0.00150814 0.014267 -0.000108887)
(0.00150928 0.0157577 -0.000160591)
(0.00148811 0.0171106 -0.000227999)
(0.001451 0.0187764 -0.000329623)
(0.00124243 0.0197385 -0.00045813)
(0.000718675 0.0170982 -0.000495127)
(0.000115303 0.00772228 -0.00019629)
(0.00185786 0.0167597 -0.00293958)
(0.00270827 0.0190324 -0.00334989)
(0.00378117 0.0217391 -0.00387707)
(0.00527945 0.0258666 -0.00480617)
(0.00711052 0.0309586 -0.00627394)
(0.00791603 0.0338478 -0.00774784)
(0.00572232 0.0281966 -0.00648079)
(0.00181017 0.0119949 -0.00221709)
(-5.26552e-06 0.000188497 3.20446e-07)
(3.72641e-05 0.000705849 9.49755e-06)
(0.000230549 0.00148451 2.22011e-05)
(0.000630052 0.00262493 3.02038e-05)
(0.00118706 0.00414138 2.59347e-05)
(0.00165718 0.00602166 1.57789e-05)
(0.00178566 0.00771057 -2.45383e-05)
(0.00126703 0.0108359 -5.11529e-05)
(0.00100952 0.0126879 -0.00221247)
(1.64305e-05 0.000325621 1.72031e-05)
(-2.48414e-06 9.09464e-05 5.81918e-06)
(0.000109133 0.000655263 7.59409e-06)
(0.000318025 0.00112607 7.80947e-06)
(0.000635901 0.00176677 7.65967e-06)
(0.000979421 0.00254311 5.71847e-06)
(0.00117864 0.00342009 3.74561e-06)
(0.00110357 0.00413784 -3.25021e-06)
(0.000713059 0.0055383 -9.46086e-06)
(0.000313644 0.00655654 -0.00112715)
(2.83164e-05 0.000156162 1.00265e-05)
(1.41198e-05 0.000148114 3.45483e-05)
(-3.21837e-06 3.81428e-05 -1.51715e-06)
(-4.04034e-07 2.01909e-05 1.12076e-06)
(7.70384e-05 0.000246736 7.93785e-07)
(0.000158855 0.000374883 5.3206e-07)
(0.000259062 0.00053744 4.37876e-07)
(0.000345909 0.000722625 3.3937e-07)
(0.000374642 0.000923082 2.67223e-07)
(0.000315827 0.00107423 -1.40114e-08)
(0.000189044 0.00137458 -5.20563e-07)
(2.44192e-05 0.00162024 -0.000268761)
(-4.07213e-06 0.000258349 -1.2208e-06)
(6.14715e-05 0.000966376 1.83075e-05)
(-4.47154e-06 0.000336722 -8.31339e-06)
(0.000322334 0.00203304 4.28326e-05)
(7.5597e-05 0.00126133 1.40473e-05)
(-2.62541e-06 0.00046038 -1.19677e-05)
(0.000852647 0.00359005 5.80571e-05)
(0.000372104 0.00271632 4.59365e-05)
(9.83569e-05 0.00175839 1.5108e-05)
(2.34958e-06 0.000714096 -1.28496e-05)
(0.00158982 0.00565789 4.93499e-05)
(0.000937327 0.00483214 5.33483e-05)
(0.000432894 0.00380024 4.20683e-05)
(0.000138453 0.00270904 1.11371e-05)
(9.72609e-06 0.00120113 -1.63872e-05)
(0.00221421 0.00820227 2.988e-05)
(0.00160402 0.00779115 3.95021e-05)
(0.000995402 0.00701031 5.00929e-05)
(0.000519802 0.00615691 5.44616e-05)
(0.000201229 0.00485985 3.64989e-05)
(2.52108e-05 0.00228335 1.45119e-05)
(0.002384 0.0105031 -4.86438e-05)
(0.00210942 0.0108236 -7.49362e-05)
(0.00172626 0.0107942 -0.000101135)
(0.00129957 0.010755 -0.000141648)
(0.00082324 0.0103187 -0.000214012)
(0.000364096 0.00851089 -0.000276743)
(3.17185e-05 0.0039186 -0.000140075)
(0.00170784 0.0145823 -9.18038e-05)
(0.00173171 0.0163047 -0.000139339)
(0.00176799 0.0182776 -0.000210522)
(0.00189132 0.0212936 -0.000342228)
(0.00198959 0.0249097 -0.00056858)
(0.00173133 0.0267109 -0.00084105)
(0.000888873 0.0218714 -0.000742779)
(0.000112098 0.00887045 -0.000117557)
(0.00133696 0.0167271 -0.00293082)
(0.00210776 0.0189739 -0.00333622)
(0.00311381 0.021836 -0.003857)
(0.00462825 0.0265587 -0.00477359)
(0.00678033 0.0333388 -0.00629184)
(0.00894337 0.0402722 -0.0082907)
(0.0087584 0.0412782 -0.00890753)
(0.00568616 0.0308848 -0.00564731)
(0.00179287 0.0121253 -0.00139589)
(4.41107e-05 0.000654779 3.09531e-05)
(-2.81071e-06 0.000172819 2.637e-06)
(0.000234003 0.00134291 3.29715e-05)
(0.000645188 0.00231379 3.80239e-05)
(0.00126852 0.00362273 3.77348e-05)
(0.0019415 0.00520156 2.80559e-05)
(0.0023326 0.00696284 1.80703e-05)
(0.00218261 0.00841657 -1.66201e-05)
(0.00141838 0.0110963 -4.26223e-05)
(0.000613503 0.012737 -0.00220843)
(0.000120036 0.000638795 3.82228e-05)
(2.77313e-05 0.000339519 4.55552e-05)
(-4.53284e-06 8.60696e-05 -7.83866e-07)
(0.000324849 0.00104208 1.29756e-05)
(0.000661889 0.00158864 1.01538e-05)
(0.00107469 0.00227353 8.51817e-06)
(0.00143202 0.00305031 6.51082e-06)
(0.00154968 0.00388429 5.23341e-06)
(0.00130589 0.0045166 -9.77673e-07)
(0.000781543 0.0057312 -7.71953e-06)
(0.000100401 0.00662961 -0.00112647)
(8.44889e-05 0.000253318 1.65331e-05)
(7.83362e-05 0.000297791 7.71333e-05)
(9.57104e-06 0.000152588 1.30953e-05)
(8.95587e-06 7.76021e-05 1.96012e-05)
(-4.08605e-06 3.86e-05 -2.6685e-06)
(-2.30192e-06 2.09416e-05 -1.82551e-06)
(-1.28966e-07 1.31377e-05 -9.5161e-07)
(0.000163976 0.000354206 1.09727e-06)
(0.000274393 0.000492365 6.14168e-07)
(0.000389837 0.000660366 4.93496e-07)
(0.000472392 0.000852041 4.43861e-07)
(0.00047247 0.00105502 4.1927e-07)
(0.000362934 0.00118845 1.36121e-07)
(0.000200195 0.00143942 -4.33511e-07)
(-3.40518e-05 0.00164724 -0.000268678)
(6.84615e-05 0.000889971 4.15095e-05)
(-3.1338e-06 0.000298151 -1.80424e-06)
(-2.02331e-06 0.000235812 1.00735e-06)
(0.000327331 0.00183841 5.99399e-05)
(7.6215e-05 0.00111432 2.42043e-05)
(-2.87177e-06 0.000395226 -8.89465e-06)
(0.000874493 0.00317175 7.24321e-05)
(0.000374904 0.00234441 5.63866e-05)
(9.55081e-05 0.00147879 2.04066e-05)
(9.70514e-07 0.000583562 -1.25787e-05)
(0.00170053 0.00495942 7.2364e-05)
(0.000977007 0.00413723 7.62814e-05)
(0.000439609 0.0031815 6.2364e-05)
(0.000136794 0.00222441 2.7794e-05)
(9.99304e-06 0.000972908 -8.20779e-06)
(0.0025911 0.00710748 5.35565e-05)
(0.00181254 0.00651659 6.45522e-05)
(0.00108957 0.00565829 7.15441e-05)
(0.000552777 0.00480975 6.67387e-05)
(0.000208091 0.0037041 3.39036e-05)
(2.20273e-05 0.00172516 7.65968e-06)
(0.00310918 0.0094814 3.43664e-05)
(0.00252145 0.00943293 3.89775e-05)
(0.00185712 0.00910915 5.26972e-05)
(0.00124559 0.00885254 7.69955e-05)
(0.000716548 0.00838983 9.75554e-05)
(0.000306418 0.00692917 9.28316e-05)
(3.75369e-05 0.00323811 8.29304e-05)
(0.00290789 0.0114507 -3.30981e-05)
(0.0027138 0.0120784 -6.46887e-05)
(0.00243897 0.0126638 -0.000101975)
(0.00214459 0.0136743 -0.000158927)
(0.00173849 0.0147969 -0.000250748)
(0.00116076 0.0150146 -0.000374256)
(0.000508087 0.0123457 -0.000357838)
(4.15635e-05 0.00526387 -4.63876e-05)
(0.00189773 0.0149307 -7.54473e-05)
(0.00195351 0.0166673 -0.000117027)
(0.00202124 0.018922 -0.000182358)
(0.00224295 0.0227903 -0.000316469)
(0.00261282 0.0284243 -0.000596455)
(0.00285634 0.0342828 -0.00108735)
(0.00227249 0.0351504 -0.0014154)
(0.000932392 0.0257518 -0.000686535)
(9.43555e-05 0.00932301 0.000130174)
(0.000812911 0.016793 -0.00292296)
(0.00151724 0.0189385 -0.00332467)
(0.00242519 0.0217743 -0.00383862)
(0.00382255 0.0267047 -0.0047431)
(0.00600513 0.0343624 -0.00624362)
(0.00883702 0.0438849 -0.00840279)
(0.0105401 0.0503047 -0.0101089)
(0.00899151 0.0462837 -0.00831171)
(0.0056097 0.0315745 -0.00368752)
(0.0017873 0.0119424 -0.000509427)
(0.000249052 0.00127846 7.64355e-05)
(5.36095e-05 0.00062499 5.11977e-05)
(-4.16631e-06 0.000162346 -1.61634e-06)
(0.000659542 0.00213587 5.58799e-05)
(0.00132196 0.00326623 4.93087e-05)
(0.00213154 0.00466265 4.20828e-05)
(0.00283031 0.00623302 3.21337e-05)
(0.0030582 0.00789568 2.561e-05)
(0.00257536 0.0091666 -5.14329e-06)
(0.00154088 0.0114764 -3.3941e-05)
(0.000196626 0.0128797 -0.00220509)
(0.000348555 0.00103502 6.33869e-05)
(0.000156704 0.000679209 0.000102528)
(2.44214e-05 0.000331802 2.47417e-05)
(-5.83382e-06 8.28734e-05 -3.45802e-06)
(0.000683754 0.00149597 1.77062e-05)
(0.00113886 0.00208633 1.17835e-05)
(0.00161405 0.00279195 9.68013e-06)
(0.00195264 0.00359188 8.62295e-06)
(0.00195112 0.00443257 8.21638e-06)
(0.0014982 0.00498911 2.00943e-06)
(0.000823621 0.00599873 -6.00887e-06)
(-0.000139928 0.00673992 -0.00112621)
(0.000179202 0.00036857 2.4194e-05)
(0.000222246 0.000488782 0.000130307)
(7.7781e-05 0.000310928 3.47712e-05)
(4.80045e-05 0.000156352 4.61707e-05)
(7.00859e-06 0.000159965 8.25019e-06)
(4.82494e-06 8.56459e-05 8.69158e-06)
(6.85663e-06 5.105e-05 1.12928e-05)
(-4.83122e-06 3.59662e-05 -3.57809e-06)
(-2.91817e-06 2.21705e-05 -2.41737e-06)
(-1.93008e-06 1.40681e-05 -2.02101e-06)
(4.75526e-08 7.40333e-06 -3.00275e-06)
(0.000286879 0.000471999 1.37387e-06)
(0.000420437 0.000616011 7.09312e-07)
(0.000547334 0.000797482 6.32161e-07)
(0.000621292 0.00101404 6.65519e-07)
(0.000577913 0.00123076 6.75426e-07)
(0.000401423 0.00133052 3.23731e-07)
(0.000200628 0.00151557 -3.72572e-07)
(-0.000101689 0.00167423 -0.000268633)
(0.000343128 0.00173304 0.000106854)
(8.31084e-05 0.00102338 4.80409e-05)
(7.62867e-05 0.000839363 5.92145e-05)
(-1.67431e-06 0.000350357 -2.18581e-06)
(-1.37404e-06 0.000272335 4.35842e-07)
(-2.99353e-06 0.000222072 -2.27715e-06)
(0.000893915 0.00292428 0.000100738)
(0.000380763 0.00211978 7.71174e-05)
(9.63664e-05 0.00130771 3.29077e-05)
(7.37068e-07 0.000503789 -8.3435e-06)
(0.00177346 0.00447925 9.36891e-05)
(0.00100278 0.00365924 9.4795e-05)
(0.000443892 0.00275125 7.60991e-05)
(0.000134628 0.00188094 3.59476e-05)
(8.61652e-06 0.000807471 -6.60083e-06)
(0.0028457 0.00638349 8.078e-05)
(0.00193964 0.00571796 9.49617e-05)
(0.00113719 0.00485143 0.000102669)
(0.000564348 0.00403952 9.86891e-05)
(0.000209608 0.00306478 6.36743e-05)
(2.32587e-05 0.00142126 2.38242e-05)
(0.00376867 0.00851049 6.15856e-05)
(0.00294885 0.00818676 7.0139e-05)
(0.00209707 0.00763617 8.64908e-05)
(0.00136288 0.00718048 0.000111415)
(0.000765094 0.00662712 0.000126991)
(0.000323976 0.00540985 0.000116516)
(3.66336e-05 0.00255363 0.000108798)
(0.00406727 0.010739 4.90539e-05)
(0.00353619 0.0109022 4.49192e-05)
(0.00291314 0.0110331 5.19484e-05)
(0.0023075 0.0115272 8.05256e-05)
(0.00167581 0.0121461 0.000134438)
(0.00103071 0.0121571 0.000191497)
(0.000430792 0.0100594 0.000250563)
(4.09204e-05 0.00441974 0.000241838)
(0.00342339 0.0124507 -1.07139e-05)
(0.00330653 0.01316 -4.40847e-05)
(0.00313404 0.0141256 -8.8006e-05)
(0.00302374 0.0160417 -0.000160305)
(0.00285544 0.0188455 -0.000284488)
(0.00242705 0.0216793 -0.00046495)
(0.00159697 0.0220477 -0.000565297)
(0.000610204 0.0167382 -0.000188428)
(4.02109e-05 0.0062098 0.000239996)
(0.00204788 0.0154355 -5.86755e-05)
(0.00216256 0.0170643 -9.55583e-05)
(0.00226947 0.019346 -0.000152495)
(0.00254821 0.0236165 -0.000273261)
(0.00309164 0.0305271 -0.000552929)
(0.00380983 0.0395174 -0.00116793)
(0.00393316 0.0460766 -0.00198661)
(0.00251866 0.0422719 -0.00160897)
(0.000832791 0.0274171 -1.96689e-05)
(7.9245e-05 0.00923781 0.000363601)
(0.000260701 0.0169817 -0.00291654)
(0.000922759 0.0190138 -0.00331428)
(0.00174638 0.0217357 -0.00382301)
(0.00298142 0.0266413 -0.00471457)
(0.00498797 0.0346184 -0.00619061)
(0.00798183 0.0455456 -0.00834378)
(0.0109544 0.0557722 -0.010525)
(0.0112741 0.0576544 -0.0100447)
(0.00889247 0.0479135 -0.00565906)
(0.0055424 0.0312079 -0.00137053)
(0.00178652 0.0118247 0.00026687)
(0.000692866 0.00206844 0.000127702)
(0.000274253 0.00124078 0.000123476)
(5.17419e-05 0.000601557 4.03039e-05)
(-5.44024e-06 0.000153493 -5.18086e-06)
(0.00136566 0.00306625 7.53827e-05)
(0.00226035 0.00428867 5.72056e-05)
(0.00319045 0.00571991 4.79872e-05)
(0.00384853 0.00732316 4.2737e-05)
(0.00383898 0.00898606 4.05169e-05)
(0.0029459 0.0100991 9.79808e-06)
(0.0016101 0.012002 -2.54287e-05)
(-0.000273957 0.0130936 -0.00220378)
(0.000733537 0.00150545 9.16204e-05)
(0.00044262 0.00111313 0.000172205)
(0.000158974 0.000671129 6.26653e-05)
(2.0728e-05 0.000329759 1.56416e-05)
(-6.99115e-06 7.74646e-05 -5.32069e-06)
(0.00119121 0.00199306 2.18974e-05)
(0.00174135 0.00260847 1.36691e-05)
(0.00226223 0.00336688 1.24482e-05)
(0.00256345 0.00426563 1.2939e-05)
(0.00238219 0.00515963 1.31371e-05)
(0.00165427 0.00557607 5.63614e-06)
(0.000821046 0.00631236 -4.74905e-06)
(-0.00041741 0.00684893 -0.00112666)
(0.00031503 0.000496373 3.26724e-05)
(0.000467896 0.000717018 0.000193247)
(0.000232461 0.000514392 6.1285e-05)
(0.000135997 0.000256821 7.94074e-05)
(7.61358e-05 0.000330238 2.50033e-05)
(4.6023e-05 0.000175366 2.44118e-05)
(3.57303e-05 0.000103119 2.92179e-05)
(4.56364e-06 0.000156216 4.64318e-06)
(3.04474e-06 9.39883e-05 5.7432e-06)
(2.95098e-06 5.90304e-05 6.95731e-06)
(4.87429e-06 2.95721e-05 2.95941e-06)
(-5.18225e-06 3.26841e-05 -3.78672e-06)
(-3.44644e-06 2.05619e-05 -2.92481e-06)
(-2.45577e-06 1.54904e-05 -2.39198e-06)
(-1.57952e-06 8.13817e-06 -2.23076e-06)
(1.23291e-07 3.27492e-06 -4.20514e-06)
(0.000445404 0.000597395 1.67471e-06)
(0.000601473 0.000756895 8.97844e-07)
(0.000743727 0.000975075 9.33567e-07)
(0.000799259 0.00124271 1.07192e-06)
(0.000684608 0.00146809 1.06434e-06)
(0.000419944 0.00149434 5.39076e-07)
(0.000183962 0.00158593 -3.71497e-07)
(-0.000177315 0.00168715 -0.000268665)
(0.000929717 0.00280153 0.000178499)
(0.00039665 0.00199041 0.00012524)
(0.000362751 0.00165905 0.000148022)
(0.000102985 0.00119782 5.737e-05)
(8.99272e-05 0.000962771 6.48268e-05)
(7.49508e-05 0.000806564 5.20119e-05)
(1.58669e-06 0.000447937 -1.44682e-06)
(-3.26126e-07 0.000320778 -1.58844e-08)
(-2.15906e-06 0.000256918 -2.46876e-06)
(-4.09868e-06 0.000209499 -5.81487e-06)
(0.00183144 0.00419821 0.000134953)
(0.00102499 0.00337205 0.000129056)
(0.000450855 0.00248759 0.000101526)
(0.000135843 0.00166647 5.26931e-05)
(8.28303e-06 0.000703217 -4.33548e-07)
(0.00301887 0.00588033 0.000108639)
(0.00202355 0.00516876 0.000122453)
(0.0011682 0.00429666 0.000127044)
(0.000571788 0.00350511 0.00011948)
(0.000209276 0.00261467 7.88956e-05)
(2.19677e-05 0.00120423 3.03183e-05)
(0.00424837 0.00782456 9.22658e-05)
(0.00323913 0.00736 0.000106036)
(0.00224533 0.00670875 0.000127619)
(0.00142551 0.00617234 0.000160171)
(0.000786905 0.00559737 0.000184181)
(0.000331567 0.00453229 0.000174005)
(3.82886e-05 0.00215219 0.000144571)
(0.0051132 0.00998204 8.21628e-05)
(0.00428392 0.00979902 8.07893e-05)
(0.00340429 0.009594 9.40769e-05)
(0.00260203 0.0097025 0.000134326)
(0.00183145 0.00993732 0.000204211)
(0.00110503 0.0097795 0.000283311)
(0.000462678 0.00812392 0.000376798)
(4.11953e-05 0.00365764 0.000335785)
(0.00509372 0.0121975 7.78737e-05)
(0.00462046 0.0123408 6.43274e-05)
(0.00407908 0.0127487 6.003e-05)
(0.00360569 0.0139711 7.93269e-05)
(0.00306951 0.0158716 0.000139317)
(0.00234765 0.017782 0.00024889)
(0.00142155 0.0179599 0.000393732)
(0.000501523 0.013963 0.000617247)
(3.56307e-05 0.00535459 0.00050418)
(0.00390682 0.0136908 1.82173e-05)
(0.00388804 0.0142973 -1.44959e-05)
(0.00381322 0.0153786 -6.00259e-05)
(0.00387658 0.0178789 -0.000138217)
(0.00400994 0.0221044 -0.000287763)
(0.00395862 0.0276839 -0.000541271)
(0.00332007 0.0320874 -0.000788735)
(0.00192341 0.0300971 -0.000457334)
(0.000585871 0.0197941 0.000547062)
(3.18635e-05 0.00648723 0.000542139)
(0.00212603 0.016132 -4.22102e-05)
(0.00232565 0.0176373 -7.34749e-05)
(0.00250065 0.0198049 -0.000123609)
(0.00283733 0.0241528 -0.000226786)
(0.00347697 0.0316879 -0.000474995)
(0.00450708 0.0426894 -0.00109546)
(0.00541271 0.0538767 -0.00225615)
(0.00459107 0.0564532 -0.0025934)
(0.00231873 0.0455592 -0.00064792)
(0.000712475 0.0273313 0.000799421)
(7.49606e-05 0.00908217 0.00046805)
(-0.000363356 0.0172632 -0.002914)
(0.000296007 0.0192277 -0.00330584)
(0.00106243 0.021823 -0.00380896)
(0.0021484 0.026599 -0.0046901)
(0.00390118 0.0345664 -0.00613917)
(0.0067043 0.0460519 -0.00824575)
(0.0102335 0.0585352 -0.0105292)
(0.0122464 0.0651148 -0.0109165)
(0.0112576 0.0605053 -0.00716553)
(0.00872445 0.0475603 -0.00215036)
(0.00551607 0.0309154 0.000719434)
(0.00178801 0.0119004 0.00100996)
(0.00143838 0.00300726 0.000180712)
(0.000754416 0.00202867 0.000208003)
(0.000277259 0.00120593 0.000104349)
(4.80321e-05 0.000583461 2.99411e-05)
(-6.70637e-06 0.000143516 -7.99172e-06)
(0.00236344 0.0040836 9.19753e-05)
(0.00344357 0.00535545 6.64264e-05)
(0.00445773 0.00688096 6.17924e-05)
(0.00503572 0.00866487 6.4137e-05)
(0.00467166 0.0104207 6.48162e-05)
(0.00324288 0.0112546 2.77678e-05)
(0.00159025 0.0126163 -1.91211e-05)
(-0.000815441 0.0133006 -0.00220588)
(0.00128563 0.00202676 0.000121831)
(0.00092949 0.00163208 0.000252359)
(0.00045994 0.00110765 0.000107933)
(0.000156916 0.000675328 4.50177e-05)
(1.69246e-05 0.000319803 9.35711e-06)
(-7.63433e-06 7.09997e-05 -6.09468e-06)
(0.00184525 0.00252115 2.6598e-05)
(0.00248664 0.00320011 1.73363e-05)
(0.00306749 0.00410689 1.83304e-05)
(0.0032904 0.00521148 2.06792e-05)
(0.0028163 0.00613807 2.04716e-05)
(0.00172772 0.00625172 9.74556e-06)
(0.00074817 0.00660066 -4.51499e-06)
(-0.000726321 0.00689766 -0.00112783)
(0.000492814 0.000634771 4.19365e-05)
(0.000824667 0.000970907 0.000267568)
(0.000498143 0.000758936 9.25529e-05)
(0.000286398 0.000376883 0.000119155)
(0.000234861 0.000550795 4.53225e-05)
(0.000140133 0.000290571 4.38436e-05)
(0.000101103 0.00016952 5.16139e-05)
(7.34363e-05 0.000327698 1.77385e-05)
(4.47731e-05 0.000194979 1.83274e-05)
(3.32601e-05 0.000121449 2.04684e-05)
(2.47292e-05 6.00396e-05 1.21608e-05)
(2.94872e-06 0.000149712 3.41298e-06)
(1.36199e-06 9.20761e-05 3.42154e-06)
(1.48198e-06 6.73402e-05 4.76308e-06)
(1.35315e-06 3.61935e-05 5.11858e-06)
(3.15839e-06 1.41869e-05 -2.3208e-06)
(-5.38895e-06 2.85092e-05 -3.88797e-06)
(-3.67217e-06 1.85623e-05 -2.99918e-06)
(-2.90656e-06 1.42904e-05 -2.71589e-06)
(-2.02583e-06 9.5347e-06 -2.36975e-06)
(-1.26962e-06 3.54708e-06 -2.41303e-06)
(1.16357e-07 7.34844e-07 -4.6559e-06)
(0.0006462 0.000740761 2.1081e-06)
(0.000835941 0.000943736 1.29546e-06)
(0.000997873 0.00123737 1.53941e-06)
(0.0010079 0.00157676 1.76544e-06)
(0.000773424 0.00177564 1.62407e-06)
(0.000405743 0.00165791 7.65673e-07)
(0.000146347 0.00162461 -4.4311e-07)
(-0.000252504 0.00166661 -0.000268843)
(0.00191216 0.00407199 0.000249148)
(0.00106155 0.00321632 0.000208966)
(0.000977501 0.00270872 0.000249186)
(0.000466597 0.00232647 0.000150811)
(0.000413552 0.00189917 0.000164175)
(0.000365475 0.00160842 0.00013647)
(0.000141555 0.00152249 7.79078e-05)
(0.000108474 0.00112566 7.29445e-05)
(8.88425e-05 0.000925112 5.90044e-05)
(7.16061e-05 0.000777597 4.25403e-05)
(8.30106e-06 0.00062973 6.39632e-06)
(2.1829e-06 0.000412546 3.87868e-07)
(-9.10218e-07 0.000303337 -2.42865e-06)
(-3.16055e-06 0.000242326 -5.8597e-06)
(-5.29318e-06 0.000196105 -8.98454e-06)
(0.00315484 0.00558944 0.0001635)
(0.00208929 0.00484114 0.000172356)
(0.00119395 0.00395744 0.00016901)
(0.000580639 0.00316996 0.000153324)
(0.000210758 0.00232525 0.000102738)
(2.10251e-05 0.00106258 3.93716e-05)
(0.00458645 0.0073361 0.000126179)
(0.0034369 0.00678482 0.000141945)
(0.00234343 0.00607059 0.000163832)
(0.00146641 0.00547932 0.000196956)
(0.000800892 0.00488474 0.000220927)
(0.000334846 0.00391894 0.00020693)
(3.70868e-05 0.00186956 0.000164608)
(0.00592133 0.00939553 0.000118933)
(0.00482924 0.0090177 0.000121191)
(0.00374008 0.00863541 0.000142534)
(0.00278837 0.0085435 0.000198588)
(0.00192156 0.00858122 0.000291672)
(0.00114552 0.00834031 0.000394346)
(0.000476974 0.00693573 0.000495675)
(4.19508e-05 0.00317065 0.000409659)
(0.00667315 0.0117786 0.00012333)
(0.00580556 0.0114835 0.00010793)
(0.00493815 0.0114778 0.000108552)
(0.00420728 0.0121912 0.000146248)
(0.00345148 0.0134552 0.000244565)
(0.00255677 0.0147602 0.000424932)
(0.00152111 0.0148459 0.000676401)
(0.000529885 0.0117526 0.00094057)
(3.59641e-05 0.00462263 0.000636106)
(0.00618247 0.0141052 0.000124493)
(0.00577944 0.0140026 0.000102285)
(0.00532193 0.0144201 8.6333e-05)
(0.00503389 0.0161365 9.22756e-05)
(0.00476353 0.019256 0.000137337)
(0.00423335 0.0233596 0.000250813)
(0.00318973 0.0265956 0.000446106)
(0.0016852 0.0252605 0.00083874)
(0.000471744 0.0170664 0.0013075)
(2.6483e-05 0.00568225 0.000753178)
(0.00429033 0.0152244 5.27751e-05)
(0.00443165 0.015706 2.36309e-05)
(0.00447701 0.0166905 -1.994e-05)
(0.004704 0.0194376 -9.40042e-05)
(0.00511781 0.0246001 -0.000246979)
(0.00551854 0.0324606 -0.000550629)
(0.00537999 0.0411089 -0.000973649)
(0.00401819 0.0440124 -0.000866017)
(0.00186454 0.0356405 0.000588595)
(0.000485418 0.020683 0.001438)
(2.75567e-05 0.00640552 0.000666756)
(0.00208488 0.0169443 -2.99087e-05)
(0.00240626 0.0184269 -5.17855e-05)
(0.00267768 0.0204641 -9.3804e-05)
(0.00309993 0.0247213 -0.000181521)
(0.00381631 0.0324245 -0.000389351)
(0.0049994 0.0444446 -0.000940643)
(0.0064671 0.0587261 -0.0021937)
(0.00660347 0.0669935 -0.00324722)
(0.00436569 0.0615795 -0.00156705)
(0.00198928 0.0456993 0.000894918)
(0.000666116 0.0269304 0.00132014)
(7.85264e-05 0.00906581 0.000505346)
(-0.00107948 0.0175314 -0.00291785)
(-0.000412688 0.0195462 -0.00330248)
(0.000340903 0.022069 -0.00379759)
(0.00130766 0.0267079 -0.00466801)
(0.00281481 0.0345235 -0.00609421)