/*--------------------------------*- C++ -*----------------------------------*\
  =========                 |
  \\      /  F ield         | OpenFOAM: The Open Source CFD Toolbox
   \\    /   O peration     | Website:  https://openfoam.org
    \\  /    A nd           | Version:  7
     \\/     M anipulation  |
\*---------------------------------------------------------------------------*/
FoamFile
{
    version     2.0;
    format      ascii;
    class       surfaceScalarField;
    location    "100";
    object      phi;
}
// * * * * * * * * * * * * * * * * * * * * * * * * * * * * * * * * * * * * * //

dimensions      [0 3 -1 0 0 0 0];

internalField   nonuniform List<scalar> 
125306
(
-1.38317e-16
-1.12136e-14
3.11165e-11
-2.18687e-16
-1.24408e-14
3.45238e-11
-1.72967e-16
-2.53575e-14
3.93301e-11
-7.74177e-17
-2.6772e-14
3.11434e-11
-2.99609e-16
-1.37804e-14
3.82422e-11
-2.76857e-16
-2.8136e-14
4.36368e-11
-1.09327e-16
-2.97007e-14
3.45535e-11
-2.22161e-16
-4.311e-14
4.94865e-11
-9.40138e-17
-6.05601e-14
3.9364e-11
-1.13996e-16
-5.20035e-14
3.11955e-11
-3.44485e-16
-1.52359e-14
4.22848e-11
-3.76068e-16
-3.11645e-14
4.83367e-11
-1.44406e-16
-3.28987e-14
3.82751e-11
-3.35187e-16
-4.78331e-14
5.49053e-11
-1.37109e-16
-6.71918e-14
4.36744e-11
-1.79033e-16
-5.76954e-14
3.46113e-11
-2.84555e-16
-6.52274e-14
6.19126e-11
-1.21865e-16
-1.02996e-13
4.9529e-11
-1.59333e-16
-1.17674e-13
3.94299e-11
-1.86298e-16
-9.35701e-14
3.12892e-11
-3.84153e-16
-1.68134e-14
4.66617e-11
-4.38716e-16
-3.446e-14
5.34464e-11
-1.68948e-16
-3.63755e-14
4.23212e-11
-4.77785e-16
-5.29827e-14
6.08188e-11
-1.81679e-16
-7.44295e-14
4.83783e-11
-2.32997e-16
-6.39106e-14
3.83391e-11
-3.94777e-16
-7.23692e-14
6.8692e-11
-1.78154e-16
-1.14278e-13
5.49524e-11
-2.39445e-16
-1.30558e-13
4.37473e-11
-2.79525e-16
-1.03809e-13
3.47152e-11
-2.50898e-16
-9.24304e-14
7.69111e-11
-1.91149e-16
-1.55913e-13
6.19656e-11
-1.99865e-16
-2.00141e-13
4.96117e-11
-2.43997e-16
-2.11708e-13
3.95482e-11
-2.46796e-16
-1.59641e-13
3.14491e-11
-4.09684e-16
-1.85101e-14
5.13774e-11
-4.82435e-16
-3.80243e-14
5.89786e-11
-1.93906e-16
-4.01411e-14
4.67018e-11
-5.40671e-16
-5.8582e-14
6.7248e-11
-2.16867e-16
-8.22996e-14
5.34923e-11
-2.82594e-16
-7.06681e-14
4.23919e-11
-5.80691e-16
-8.0158e-14
7.60905e-11
-2.41008e-16
-1.26589e-13
6.0871e-11
-3.06174e-16
-1.44619e-13
4.84591e-11
-3.62189e-16
-1.14989e-13
3.84542e-11
-3.6198e-16
-1.02555e-13
8.5333e-11
-2.60415e-16
-1.72988e-13
6.87508e-11
-2.99857e-16
-2.22056e-13
5.5044e-11
-3.62872e-16
-2.34888e-13
4.38785e-11
-3.79634e-16
-1.77111e-13
3.48925e-11
-3.40797e-16
-1.25531e-13
9.47008e-11
-2.22785e-16
-2.21153e-13
7.69765e-11
-2.26037e-16
-3.02887e-13
6.20686e-11
-3.10364e-16
-3.60075e-13
4.97604e-11
-3.41388e-16
-3.61225e-13
3.97502e-11
-3.38866e-16
-2.59348e-13
3.17089e-11
-4.45855e-16
-2.03388e-14
5.64351e-11
-5.33093e-16
-4.18694e-14
6.49392e-11
-2.14958e-16
-4.41979e-14
5.14216e-11
-6.13855e-16
-6.464e-14
7.42088e-11
-2.47998e-16
-9.08208e-14
5.90294e-11
-3.23245e-16
-7.79841e-14
4.67798e-11
-6.3469e-16
-8.86242e-14
8.4134e-11
-2.84345e-16
-1.39976e-13
6.73057e-11
-3.64914e-16
-1.59906e-13
5.35816e-11
-4.3193e-16
-1.27144e-13
4.25191e-11
-5.88148e-16
-1.13601e-13
9.45237e-11
-3.51887e-16
-1.9162e-13
7.61556e-11
-3.83179e-16
-2.45971e-13
6.09725e-11
-4.66443e-16
-2.60188e-13
4.86044e-11
-4.90504e-16
-1.96188e-13
3.86505e-11
-4.52185e-16
-1.39281e-13
1.05071e-10
-3.13421e-16
-2.45374e-13
8.54054e-11
-3.55555e-16
-3.36057e-13
6.88649e-11
-4.64374e-16
-3.99506e-13
5.52088e-11
-5.06347e-16
-4.00775e-13
4.41024e-11
-5.11551e-16
-2.87728e-13
3.51804e-11
-3.43651e-16
-1.64946e-13
1.15347e-10
-2.95543e-16
-3.00474e-13
9.47803e-11
-3.11774e-16
-4.29606e-13
7.71036e-11
-4.16051e-16
-5.44981e-13
6.22539e-11
-4.28513e-16
-6.14369e-13
5.00139e-11
-4.63139e-16
-5.86823e-13
4.00782e-11
-4.12909e-16
-4.01538e-13
3.21108e-11
-4.51878e-16
-2.22717e-14
6.18258e-11
-5.5055e-16
-4.59849e-14
7.13319e-11
-2.38294e-16
-4.8552e-14
5.64837e-11
-6.50309e-16
-7.11712e-14
8.17085e-11
-2.80319e-16
-1.00003e-13
6.4995e-11
-3.56846e-16
-8.58665e-14
5.15075e-11
-7.54308e-16
-9.77882e-14
9.28427e-11
-3.28057e-16
-1.54469e-13
7.42725e-11
-4.14237e-16
-1.76458e-13
5.91279e-11
-4.91179e-16
-1.40305e-13
4.69202e-11
-6.56928e-16
-1.2561e-13
1.04516e-10
-3.92998e-16
-2.11877e-13
8.42059e-11
-4.5731e-16
-2.71971e-13
6.74178e-11
-5.54904e-16
-2.87694e-13
5.37423e-11
-5.91965e-16
-2.16929e-13
4.27361e-11
-7.31845e-16
-1.54282e-13
1.16387e-10
-4.37383e-16
-2.71804e-13
9.4604e-11
-4.55429e-16
-3.72254e-13
7.6282e-11
-5.96854e-16
-4.42537e-13
6.1155e-11
-6.43895e-16
-4.43941e-13
4.88523e-11
-6.59849e-16
-3.18717e-13
3.89693e-11
-4.71316e-16
-1.83016e-13
1.27977e-10
-4.02341e-16
-3.33385e-13
1.05159e-10
-4.72975e-16
-4.76655e-13
8.55462e-11
-6.08888e-16
-6.04661e-13
6.90703e-11
-6.40543e-16
-6.81643e-13
5.54899e-11
-6.79801e-16
-6.51075e-13
4.44659e-11
-6.23572e-16
-4.45478e-13
3.56261e-11
-6.03626e-16
-2.10799e-13
1.38648e-10
-2.9692e-16
-3.94973e-13
1.15441e-10
-3.89059e-16
-5.83597e-13
9.49346e-11
-5.02983e-16
-7.72941e-13
7.7332e-11
-5.21253e-16
-9.29766e-13
6.25699e-11
-5.82931e-16
-9.98036e-13
5.04258e-11
-5.82194e-16
-9.08563e-13
4.05858e-11
-4.6403e-16
-5.93348e-13
3.27047e-11
-4.68055e-16
-2.43353e-14
6.75316e-11
-5.83986e-16
-5.03771e-14
7.81455e-11
-2.50756e-16
-5.31882e-14
6.1879e-11
-6.91368e-16
-7.81698e-14
8.97521e-11
-3.01165e-16
-1.0985e-13
7.13932e-11
-3.82136e-16
-9.43195e-14
5.6578e-11
-7.773e-16
-1.07662e-13
1.02226e-10
-3.59994e-16
-1.70086e-13
8.17786e-11
-4.53602e-16
-1.9429e-13
6.51034e-11
-5.39136e-16
-1.54486e-13
5.1662e-11
-8.32295e-16
-1.3861e-13
1.15334e-10
-4.52225e-16
-2.33809e-13
9.29221e-11
-5.18959e-16
-3.00121e-13
7.43962e-11
-6.28594e-16
-3.17475e-13
5.93051e-11
-6.75537e-16
-2.39385e-13
4.71597e-11
-7.8355e-16
-1.7059e-13
1.2869e-10
-4.92937e-16
-3.00538e-13
1.04605e-10
-5.58601e-16
-4.11607e-13
8.43457e-11
-7.09274e-16
-4.89321e-13
6.76196e-11
-7.66075e-16
-4.9087e-13
5.40163e-11
-7.87441e-16
-3.5241e-13
4.30887e-11
-7.91451e-16
-2.02731e-13
1.41761e-10
-5.62604e-16
-3.69292e-13
1.16485e-10
-6.04268e-16
-5.27994e-13
9.47599e-11
-7.823e-16
-6.69787e-13
7.65094e-11
-8.12257e-16
-7.55059e-13
6.14663e-11
-8.63419e-16
-7.212e-13
4.9255e-11
-8.0043e-16
-4.93458e-13
3.9463e-11
-8.03364e-16
-2.33895e-13
1.5383e-10
-4.09863e-16
-4.38238e-13
1.28082e-10
-5.89062e-16
-6.47516e-13
1.0533e-10
-7.43432e-16
-8.57592e-13
8.57993e-11
-7.97425e-16
-1.03159e-12
6.94205e-11
-8.62843e-16
-1.10733e-12
5.59464e-11
-8.44407e-16
-1.00804e-12
4.50288e-11
-6.88369e-16
-6.58277e-13
3.62846e-11
-4.15888e-16
-2.61881e-13
1.64029e-10
-9.07995e-17
-5.04444e-13
1.38758e-10
-4.84832e-16
-7.67056e-13
1.15625e-10
-6.18207e-16
-1.04992e-12
9.52122e-11
-7.05791e-16
-1.31859e-12
7.77215e-11
-7.46824e-16
-1.51033e-12
6.30829e-11
-7.30974e-16
-1.54516e-12
5.10631e-11
-6.67426e-16
-1.34254e-12
4.13357e-11
-5.03099e-16
-8.3979e-13
3.3545e-11
-4.42179e-16
-2.64784e-14
7.3533e-11
-5.72054e-16
-5.50142e-14
8.53574e-11
-2.63372e-16
-5.81006e-14
6.75897e-11
-7.06104e-16
-8.5631e-14
9.83252e-11
-3.23895e-16
-1.20347e-13
7.82127e-11
-4.02363e-16
-1.0333e-13
6.19823e-11
-8.36393e-16
-1.1825e-13
1.12289e-10
-3.89572e-16
-1.86834e-13
8.98291e-11
-4.86338e-16
-2.13417e-13
7.15123e-11
-5.76837e-16
-1.69695e-13
5.67477e-11
-8.66442e-16
-1.52617e-13
1.2699e-10
-4.76731e-16
-2.5744e-13
1.02313e-10
-5.70773e-16
-3.30451e-13
8.19148e-11
-6.88616e-16
-3.49562e-13
6.52986e-11
-7.44342e-16
-2.6358e-13
5.19257e-11
-1.02456e-15
-1.88246e-13
1.42011e-10
-5.76693e-16
-3.31648e-13
1.15432e-10
-6.37226e-16
-4.54216e-13
9.30763e-11
-8.01249e-16
-5.39974e-13
7.46188e-11
-8.68738e-16
-5.41682e-13
5.96075e-11
-8.92588e-16
-3.88889e-13
4.75487e-11
-8.59484e-16
-2.24168e-13
1.56747e-10
-6.16036e-16
-4.08327e-13
1.28798e-10
-7.24562e-16
-5.8381e-13
1.04777e-10
-9.1482e-16
-7.4059e-13
8.45971e-11
-9.70277e-16
-8.34877e-13
6.79637e-11
-1.02019e-15
-7.97439e-13
5.44615e-11
-9.50252e-16
-5.45624e-13
4.36345e-11
-1.30495e-15
-2.59087e-13
1.70398e-10
-5.58544e-16
-4.85438e-13
1.41877e-10
-7.57641e-16
-7.1726e-13
1.16674e-10
-9.59514e-16
-9.49961e-13
9.50402e-11
-1.01301e-15
-1.1427e-12
7.68973e-11
-1.09551e-15
-1.22659e-12
6.19719e-11
-1.06116e-15
-1.11661e-12
4.98784e-11
-8.72445e-16
-7.29176e-13
4.01924e-11
-5.74788e-16
-2.90578e-13
1.81991e-10
-1.68871e-16
-5.5971e-13
1.53952e-10
-7.3075e-16
-8.51079e-13
1.28286e-10
-9.10361e-16
-1.16492e-12
1.05637e-10
-1.05339e-15
-1.463e-12
8.62311e-11
-1.10359e-15
-1.67573e-12
6.99893e-11
-1.06667e-15
-1.71436e-12
5.66531e-11
-9.48509e-16
-1.48953e-12
4.58603e-11
-7.28362e-16
-9.31687e-13
3.72165e-11
-8.72579e-16
-3.16361e-13
1.90455e-10
-3.37666e-16
-6.26918e-13
1.64152e-10
-6.54071e-16
-9.79783e-13
1.38971e-10
-7.19148e-16
-1.37978e-12
1.15956e-10
-8.69923e-16
-1.79083e-12
9.56853e-11
-9.40162e-16
-2.14162e-12
7.83537e-11
-9.06904e-16
-2.338e-12
6.38767e-11
-8.45361e-16
-2.28302e-12
5.20045e-11
-7.4968e-16
-1.90006e-12
4.23967e-11
-4.616e-16
-1.1436e-12
3.4689e-11
-4.41695e-16
-2.87404e-14
7.97898e-11
-5.68715e-16
-5.98966e-14
9.2943e-11
-2.60274e-16
-6.32591e-14
7.35963e-11
-7.07396e-16
-9.35232e-14
1.07399e-10
-3.29462e-16
-1.31453e-13
8.54308e-11
-4.15507e-16
-1.12866e-13
6.77025e-11
-8.47694e-16
-1.29539e-13
1.23015e-10
-4.07717e-16
-2.04685e-13
9.84096e-11
-5.09535e-16
-2.33802e-13
7.83432e-11
-6.0305e-16
-1.85905e-13
6.21683e-11
-9.82997e-16
-1.67637e-13
1.39491e-10
-5.08157e-16
-2.82784e-13
1.12385e-10
-6.11503e-16
-3.62981e-13
8.99787e-11
-7.34039e-16
-3.83977e-13
7.17267e-11
-7.94656e-16
-2.89528e-13
5.70373e-11
-1.03003e-15
-2.07269e-13
1.56363e-10
-6.02562e-16
-3.65167e-13
1.27098e-10
-7.09954e-16
-5.00123e-13
1.02483e-10
-8.7516e-16
-5.94549e-13
8.21599e-11
-9.4912e-16
-5.96426e-13
6.56315e-11
-9.75887e-16
-4.28194e-13
5.2354e-11
-1.15777e-15
-2.47377e-13
1.72971e-10
-7.23356e-16
-4.5059e-13
1.4213e-10
-8.19127e-16
-6.44243e-13
1.15622e-10
-1.02846e-15
-8.17249e-13
9.33537e-11
-1.09758e-15
-9.21297e-13
7.49986e-11
-1.14892e-15
-8.79985e-13
6.00988e-11
-1.06818e-15
-6.02104e-13
4.81509e-11
-1.35138e-15
-2.86472e-13
1.88411e-10
-6.23473e-16
-5.36749e-13
1.56875e-10
-9.06545e-16
-7.93085e-13
1.29008e-10
-1.12864e-15
-1.05038e-12
1.05087e-10
-1.224e-15
-1.2635e-12
8.50259e-11
-1.29648e-15
-1.35626e-12
6.85228e-11
-1.2409e-15
-1.23465e-12
5.51508e-11
-1.02189e-15
-8.0626e-13
4.44409e-11
-9.24298e-16
-3.21881e-13
2.01592e-10
-1.63874e-16
-6.2e-13
1.70533e-10
-9.48668e-16
-9.42752e-13
1.42103e-10
-1.17395e-15
-1.29039e-12
1.17015e-10
-1.33973e-15
-1.62058e-12
9.55184e-11
-1.40121e-15
-1.85621e-12
7.75272e-11
-1.34189e-15
-1.89901e-12
6.27546e-11
-1.17303e-15
-1.64997e-12
5.07994e-11
-9.0016e-16
-1.03203e-12
4.12246e-11
-1.13842e-15
-3.51037e-13
2.1131e-10
-4.86324e-16
-6.95615e-13
1.82127e-10
-9.70194e-16
-1.08712e-12
1.54188e-10
-1.06322e-15
-1.53092e-12
1.28652e-10
-1.30189e-15
-1.98698e-12
1.06162e-10
-1.38734e-15
-2.37617e-12
8.6932e-11
-1.3349e-15
-2.59404e-12
7.08694e-11
-1.21059e-15
-2.53303e-12
5.76969e-11
-1.02376e-15
-2.1081e-12
4.7037e-11
-6.17014e-16
-1.26875e-12
3.84854e-11
-4.73917e-16
-3.70103e-13
2.16376e-10
-2.2049e-17
-7.56795e-13
1.90585e-10
-6.63489e-16
-1.2173e-12
1.6439e-10
-7.43995e-16
-1.7619e-12
1.39354e-10
-1.07505e-15
-2.35289e-12
1.16519e-10
-1.15551e-15
-2.90793e-12
9.64528e-11
-1.15294e-15
-3.31451e-12
7.93314e-11
-1.07898e-15
-3.45388e-12
6.50486e-11
-9.2186e-16
-3.23064e-12
5.3336e-11
-7.35582e-16
-2.58726e-12
4.38411e-11
-3.78028e-16
-1.50628e-12
3.61957e-11
-4.09206e-16
-3.10495e-14
8.62541e-11
-5.44869e-16
-6.49832e-14
1.00851e-10
-2.61446e-16
-6.86452e-14
7.98584e-11
-6.98072e-16
-1.01826e-13
1.16944e-10
-3.33499e-16
-1.43136e-13
9.30229e-11
-4.24938e-16
-1.22898e-13
7.37192e-11
-8.56582e-16
-1.41482e-13
1.34368e-10
-4.16765e-16
-2.23577e-13
1.07492e-10
-5.27624e-16
-2.5538e-13
8.55733e-11
-6.19358e-16
-2.03064e-13
6.79056e-11
-9.85096e-16
-1.83649e-13
1.52816e-10
-5.20309e-16
-3.09799e-13
1.2312e-10
-6.42907e-16
-3.97652e-13
9.85734e-11
-7.66652e-16
-4.20657e-13
7.8578e-11
-8.34665e-16
-3.17188e-13
6.24855e-11
-1.19617e-15
-2.2767e-13
1.71756e-10
-6.47888e-16
-4.01114e-13
1.3961e-10
-7.63371e-16
-5.49358e-13
1.12571e-10
-9.30654e-16
-6.53081e-13
9.02478e-11
-1.01562e-15
-6.55143e-13
7.20923e-11
-1.03643e-15
-4.70348e-13
5.75077e-11
-1.17213e-15
-2.72386e-13
1.90452e-10
-7.38157e-16
-4.96122e-13
1.56494e-10
-9.03133e-16
-7.09354e-13
1.27307e-10
-1.11302e-15
-8.99843e-13
1.02788e-10
-1.20541e-15
-1.01441e-12
8.2578e-11
-1.2488e-15
-9.68921e-13
6.61724e-11
-1.15693e-15
-6.62958e-13
5.3017e-11
-1.74896e-15
-3.16121e-13
2.07914e-10
-7.30288e-16
-5.92302e-13
1.73113e-10
-1.02796e-15
-8.75182e-13
1.42361e-10
-1.27403e-15
-1.15911e-12
1.15964e-10
-1.38331e-15
-1.39429e-12
9.38268e-11
-1.45687e-15
-1.49665e-12
7.56154e-11
-1.38235e-15
-1.36245e-12
6.08593e-11
-1.13225e-15
-8.8972e-13
4.90408e-11
-1.00661e-15
-3.55915e-13
2.22902e-10
-2.74553e-16
-6.85548e-13
1.8856e-10
-1.12901e-15
-1.04242e-12
1.57125e-10
-1.37699e-15
-1.4268e-12
1.29384e-10
-1.58988e-15
-1.79189e-12
1.05615e-10
-1.65224e-15
-2.05244e-12
8.57223e-11
-1.57137e-15
-2.09975e-12
6.93881e-11
-1.3512e-15
-1.82439e-12
5.61691e-11
-1.0175e-15
-1.14113e-12
4.55821e-11
-1.82021e-15
-3.88849e-13
2.34069e-10
-6.02831e-16
-7.70544e-13
2.01743e-10
-1.28178e-15
-1.20422e-12
1.70795e-10
-1.35788e-15
-1.69582e-12
1.42509e-10
-1.66328e-15
-2.20099e-12
1.17596e-10
-1.7626e-15
-2.6321e-12
9.62946e-11
-1.68105e-15
-2.87343e-12
7.8502e-11
-1.50013e-15
-2.80585e-12
6.39108e-11
-1.22516e-15
-2.33515e-12
5.21027e-11
-7.05348e-16
-1.40539e-12
4.26301e-11
-6.33853e-16
-4.10677e-13
2.40069e-10
-9.71164e-17
-8.3974e-13
2.11454e-10
-9.96207e-16
-1.35069e-12
1.82391e-10
-1.12114e-15
-1.95493e-12
1.54613e-10
-1.60258e-15
-2.61063e-12
1.29277e-10
-1.70696e-15
-3.22643e-12
1.07013e-10
-1.69043e-15
-3.67752e-12
8.8016e-11
-1.54465e-15
-3.83213e-12
7.21689e-11
-1.27368e-15
-3.58442e-12
5.91736e-11
-9.23334e-16
-2.87054e-12
4.8639e-11
-4.04679e-16
-1.67111e-12
4.01566e-11
-4.22963e-16
-4.18127e-13
2.39835e-10
-3.98778e-16
-8.85391e-13
2.16505e-10
-8.70512e-16
-1.46937e-12
1.90838e-10
-9.50068e-16
-2.1883e-12
1.64818e-10
-1.33396e-15
-3.00348e-12
1.40006e-10
-1.40466e-15
-3.8191e-12
1.17432e-10
-1.42374e-15
-4.49882e-12
9.76385e-11
-1.34488e-15
-4.89484e-12
8.07737e-11
-1.14035e-15
-4.88608e-12
6.67052e-11
-9.1722e-16
-4.39819e-12
5.51478e-11
-6.79378e-16
-3.40735e-12
4.57428e-11
-1.96229e-16
-1.93086e-12
3.81268e-11
-4.11404e-16
-3.34408e-14
9.28648e-11
-5.26879e-16
-7.024e-14
1.09022e-10
-2.50474e-16
-7.42017e-14
8.63283e-11
-6.75384e-16
-1.1048e-13
1.26894e-10
-3.27937e-16
-1.55315e-13
1.00938e-10
-4.27019e-16
-1.33355e-13
7.99918e-11
-8.4822e-16
-1.54051e-13
1.46309e-10
-4.18753e-16
-2.43448e-13
1.17044e-10
-5.37612e-16
-2.78076e-13
9.31781e-11
-6.24559e-16
-2.2111e-13
7.39403e-11
-1.033e-15
-2.00592e-13
1.66919e-10
-5.27901e-16
-3.3839e-13
1.34482e-10
-6.65256e-16
-4.34352e-13
1.07671e-10
-7.85298e-16
-4.5948e-13
8.58297e-11
-8.58727e-16
-3.46462e-13
6.82521e-11
-1.17686e-15
-2.49417e-13
1.88162e-10
-6.51315e-16
-4.39429e-13
1.52945e-10
-8.06405e-16
-6.01836e-13
1.23324e-10
-9.69481e-16
-7.15467e-13
9.88683e-11
-1.06008e-15
-7.17725e-13
7.89786e-11
-1.07751e-15
-5.15279e-13
6.30008e-11
-1.41966e-15
-2.99206e-13
2.09201e-10
-7.92194e-16
-5.44954e-13
1.719e-10
-9.65286e-16
-7.79186e-13
1.3984e-10
-1.17834e-15
-9.88426e-13
1.12907e-10
-1.28586e-15
-1.11427e-12
9.07071e-11
-1.3238e-15
-1.06431e-12
7.26864e-11
-1.21422e-15
-7.28223e-13
5.8236e-11
-1.68062e-15
-3.48061e-13
2.28926e-10
-7.57473e-16
-6.5215e-13
1.90608e-10
-1.13041e-15
-9.63634e-13
1.56749e-10
-1.38014e-15
-1.27625e-12
1.27684e-10
-1.52653e-15
-1.53521e-12
1.03309e-10
-1.58446e-15
-1.64791e-12
8.32571e-11
-1.48506e-15
-1.50015e-12
6.70097e-11
-1.2049e-15
-9.79643e-13
5.39968e-11
-1.37393e-15
-3.92763e-13
2.45975e-10
-3.3004e-16
-7.56516e-13
2.08078e-10
-1.2863e-15
-1.15033e-12
1.73389e-10
-1.55275e-15
-1.57449e-12
1.42777e-10
-1.78669e-15
-1.97738e-12
1.16548e-10
-1.85032e-15
-2.26489e-12
9.45953e-11
-1.74853e-15
-2.3171e-12
7.65702e-11
-1.47981e-15
-2.01324e-12
6.19829e-11
-1.08092e-15
-1.25925e-12
5.03001e-11
-1.85878e-15
-4.29954e-13
2.58813e-10
-7.01536e-16
-8.52002e-13
2.23069e-10
-1.48768e-15
-1.33153e-12
1.88849e-10
-1.60326e-15
-1.87509e-12
1.57573e-10
-1.97643e-15
-2.43367e-12
1.30026e-10
-2.0753e-15
-2.91035e-12
1.06474e-10
-1.97651e-15
-3.17719e-12
8.68001e-11
-1.72784e-15
-3.10246e-12
7.06664e-11
-1.35648e-15
-2.582e-12
5.76101e-11
-7.2641e-16
-1.55396e-12
4.71361e-11
-1.01798e-15
-4.54917e-13
2.65926e-10
2.16617e-17
-9.30201e-13
2.34229e-10
-1.30083e-15
-1.49618e-12
2.02035e-10
-1.39587e-15
-2.1655e-12
1.71265e-10
-2.05575e-15
-2.89183e-12
1.432e-10
-2.1695e-15
-3.57395e-12
1.18538e-10
-2.12502e-15
-4.07362e-12
9.74953e-11
-1.91814e-15
-4.24487e-12
7.99414e-11
-1.5317e-15
-3.97048e-12
6.55464e-11
-1.0164e-15
-3.17971e-12
5.38771e-11
-3.38376e-16
-1.8511e-12
4.44811e-11
-5.64083e-16
-4.63977e-13
2.66097e-10
-5.89451e-16
-9.82455e-13
2.40212e-10
-1.27723e-15
-1.63042e-12
2.11734e-10
-1.41009e-15
-2.42809e-12
1.82864e-10
-1.98201e-15
-3.33253e-12
1.55335e-10
-2.07047e-15
-4.23746e-12
1.30288e-10
-2.09141e-15
-4.99159e-12
1.08327e-10
-1.93032e-15
-5.43093e-12
8.96154e-11
-1.59046e-15
-5.42119e-12
7.40062e-11
-1.16883e-15
-4.87983e-12
6.11832e-11
-6.98338e-16
-3.78044e-12
5.07484e-11
2.30835e-17
-2.14216e-12
4.22985e-11
-4.06309e-16
-4.54551e-13
2.58678e-10
-6.09792e-16
-1.00025e-12
2.3995e-10
-7.11103e-16
-1.7183e-12
2.16754e-10
-9.02734e-16
-2.63995e-12
1.91291e-10
-1.47178e-15
-3.72818e-12
1.65544e-10
-1.6215e-15
-4.87207e-12
1.41061e-10
-1.75125e-15
-5.90489e-12
1.18839e-10
-1.65884e-15
-6.64001e-12
9.93854e-11
-1.45546e-15
-6.92105e-12
8.28102e-11
-1.16502e-15
-6.64919e-12
6.89574e-11
-8.32374e-16
-5.79051e-12
5.75318e-11
-5.06742e-16
-4.36697e-12
4.81794e-11
8.90312e-17
-2.42436e-12
4.0551e-11
-3.95114e-16
-3.58303e-14
9.95457e-11
-5.1214e-16
-7.56141e-14
1.17378e-10
-2.45647e-16
-7.98917e-14
9.29447e-11
-6.50563e-16
-1.1942e-13
1.37175e-10
-3.19756e-16
-1.67897e-13
1.09116e-10
-4.2425e-16
-1.4416e-13
8.64725e-11
-8.19442e-16
-1.6715e-13
1.58758e-10
-4.11972e-16
-2.64163e-13
1.27003e-10
-5.40695e-16
-3.01738e-13
1.01106e-10
-6.20899e-16
-2.39925e-13
8.02317e-11
-1.01829e-15
-2.18419e-13
1.81753e-10
-5.25741e-16
-3.68464e-13
1.46434e-10
-6.77676e-16
-4.72953e-13
1.17239e-10
-7.91629e-16
-5.00315e-13
9.34573e-11
-8.75162e-16
-3.77257e-13
7.43175e-11
-1.27065e-15
-2.72433e-13
2.05527e-10
-6.62465e-16
-4.79981e-13
1.6706e-10
-8.34356e-16
-6.57381e-13
1.34705e-10
-9.91246e-16
-7.81498e-13
1.07993e-10
-1.09413e-15
-7.83968e-13
8.62673e-11
-1.09717e-15
-5.62834e-13
6.8815e-11
-1.3843e-15
-3.27795e-13
2.29184e-10
-7.82605e-16
-5.97e-13
1.8832e-10
-1.0153e-15
-8.53617e-13
1.53197e-10
-1.2214e-15
-1.08284e-12
1.23692e-10
-1.34685e-15
-1.22071e-12
9.93713e-11
-1.37087e-15
-1.16597e-12
7.96293e-11
-1.24659e-15
-7.97787e-13
6.37986e-11
-1.97636e-15
-3.82316e-13
2.51462e-10
-8.26467e-16
-7.16338e-13
2.09372e-10
-1.20883e-15
-1.0585e-12
1.72179e-10
-1.46295e-15
-1.40189e-12
1.40253e-10
-1.62838e-15
-1.68634e-12
1.13479e-10
-1.67559e-15
-1.81014e-12
9.1453e-11
-1.55531e-15
-1.64783e-12
7.36061e-11
-1.2373e-15
-1.07609e-12
5.93122e-11
-1.38918e-15
-4.32466e-13
2.70834e-10
-4.46453e-16
-8.32979e-13
2.29107e-10
-1.40641e-15
-1.26659e-12
1.90911e-10
-1.67978e-15
-1.73361e-12
1.57206e-10
-1.95247e-15
-2.17722e-12
1.28326e-10
-2.00733e-15
-2.49379e-12
1.04155e-10
-1.88138e-15
-2.55128e-12
8.43084e-11
-1.55947e-15
-2.21671e-12
6.82468e-11
-1.09102e-15
-1.38651e-12
5.53833e-11
-2.35051e-15
-4.74458e-13
2.85602e-10
-7.76882e-16
-9.40196e-13
2.46159e-10
-1.69279e-15
-1.46936e-12
2.08397e-10
-1.80288e-15
-2.06918e-12
1.73883e-10
-2.22649e-15
-2.68559e-12
1.43485e-10
-2.32311e-15
-3.2116e-12
1.17495e-10
-2.19839e-15
-3.50607e-12
9.57845e-11
-1.8875e-15
-3.42361e-12
7.79808e-11
-1.42199e-15
-2.84926e-12
6.3573e-11
-6.77156e-16
-1.71482e-12
5.20149e-11
-1.08004e-15
-5.03013e-13
2.94037e-10
-1.19297e-16
-1.02855e-12
2.58989e-10
-1.54238e-15
-1.65436e-12
2.23392e-10
-1.69569e-15
-2.39444e-12
1.89369e-10
-2.43324e-15
-3.19754e-12
1.58337e-10
-2.55584e-15
-3.95177e-12
1.31068e-10
-2.49146e-15
-4.50426e-12
1.07801e-10
-2.20333e-15
-4.69361e-12
8.83915e-11
-1.70442e-15
-4.3902e-12
7.24748e-11
-1.02229e-15
-3.51585e-12
5.9572e-11
-1.72978e-16
-2.04678e-12
4.91827e-11
-9.04047e-16
-5.13962e-13
2.94757e-10
-7.60837e-16
-1.08829e-12
2.66084e-10
-1.70485e-15
-1.80605e-12
2.34539e-10
-1.77829e-15
-2.68964e-12
2.0256e-10
-2.55684e-15
-3.6915e-12
1.72065e-10
-2.62981e-15
-4.69389e-12
1.4432e-10
-2.63026e-15
-5.52923e-12
1.19994e-10
-2.39603e-15
-6.01589e-12
9.92668e-11
-1.91394e-15
-6.00509e-12
8.19763e-11
-1.29721e-15
-5.40542e-12
6.77722e-11
-5.8812e-16
-4.18761e-12
5.62135e-11
3.74251e-16
-2.37287e-12
4.68536e-11
-5.26476e-16
-5.04404e-13
2.87003e-10
-8.36841e-16
-1.10993e-12
2.66225e-10
-1.0606e-15
-1.90667e-12
2.40488e-10
-1.36144e-15
-2.9293e-12
2.12236e-10
-2.18754e-15
-4.13672e-12
1.83669e-10
-2.38735e-15
-5.40585e-12
1.56504e-10
-2.5676e-15
-6.55174e-12
1.31849e-10
-2.38378e-15
-7.36732e-12
1.10264e-10
-2.02175e-15
-7.67907e-12
9.18738e-11
-1.49367e-15
-7.3774e-12
7.65041e-11
-8.71408e-16
-6.42463e-12
6.38274e-11
-2.13725e-16
-4.84514e-12
5.34511e-11
7.05205e-16
-2.68967e-12
4.49875e-11
-3.92539e-16
-4.74127e-13
2.70898e-10
-4.01063e-16
-1.08713e-12
2.58765e-10
-4.61518e-16
-1.93991e-12
2.40172e-10
-1.08778e-15
-3.0851e-12
2.172e-10
-1.68785e-15
-4.49411e-12
1.92058e-10
-1.91544e-15
-6.04216e-12
1.66716e-10
-2.12513e-15
-7.52583e-12
1.42684e-10
-2.01924e-15
-8.70716e-12
1.20909e-10
-1.80805e-15
-9.3805e-12
1.01847e-10
-1.47524e-15
-9.41131e-12
8.55738e-11
-1.04272e-15
-8.74863e-12
7.19166e-11
-6.21565e-16
-7.41786e-12
6.05834e-11
-2.16508e-16
-5.48151e-12
5.12368e-11
5.68626e-16
-2.99938e-12
4.35498e-11
-3.84273e-16
-3.82341e-14
1.06209e-10
-5.04161e-16
-8.10552e-14
1.25822e-10
-2.34544e-16
-8.56364e-14
9.96313e-11
-6.46651e-16
-1.28575e-13
1.47688e-10
-3.09865e-16
-1.80764e-13
1.17479e-10
-4.15044e-16
-1.55209e-13
9.30999e-11
-8.18396e-16
-1.80692e-13
1.7162e-10
-4.0134e-16
-2.85563e-13
1.37293e-10
-5.36474e-16
-3.26185e-13
1.09298e-10
-6.07795e-16
-2.59363e-13
8.67318e-11
-1.01327e-15
-2.36998e-13
1.97218e-10
-5.14019e-16
-3.99814e-13
1.58893e-10
-6.8131e-16
-5.13197e-13
1.27215e-10
-7.86026e-16
-5.42887e-13
1.01409e-10
-8.74475e-16
-4.09359e-13
8.0641e-11
-1.22667e-15
-2.96646e-13
2.23792e-10
-6.50526e-16
-5.22634e-13
1.81907e-10
-8.50444e-16
-7.15803e-13
1.46677e-10
-9.98117e-16
-8.5095e-13
1.1759e-10
-1.10936e-15
-8.53644e-13
9.39337e-11
-1.09964e-15
-6.12856e-13
7.49304e-11
-1.54385e-15
-3.58052e-13
2.50335e-10
-7.98541e-16
-6.52087e-13
2.05699e-10
-1.04668e-15
-9.32399e-13
1.67335e-10
-1.24566e-15
-1.18277e-12
1.35107e-10
-1.38638e-15
-1.33338e-12
1.08542e-10
-1.39562e-15
-1.27358e-12
8.69781e-11
-1.25039e-15
-8.71416e-13
6.96864e-11
-1.84537e-15
-4.18824e-13
2.75481e-10
-8.27061e-16
-7.84748e-13
2.29372e-10
-1.26813e-15
-1.15961e-12
1.88626e-10
-1.51515e-15
-1.5358e-12
1.5365e-10
-1.70705e-15
-1.84743e-12
1.24318e-10
-1.7355e-15
-1.98305e-12
1.00188e-10
-1.58862e-15
-1.80523e-12
8.06368e-11
-1.23462e-15
-1.17888e-12
6.49775e-11
-1.74455e-15
-4.75048e-13
2.97495e-10
-5.23136e-16
-9.14986e-13
2.5166e-10
-1.50566e-15
-1.39128e-12
2.09705e-10
-1.77899e-15
-1.90427e-12
1.72682e-10
-2.07165e-15
-2.39155e-12
1.40958e-10
-2.1178e-15
-2.73929e-12
1.14408e-10
-1.96696e-15
-2.80243e-12
9.26077e-11
-1.59458e-15
-2.43493e-12
7.4965e-11
-1.0487e-15
-1.52301e-12
6.08351e-11
-2.22729e-15
-5.22401e-13
3.14466e-10
-8.37877e-16
-1.03521e-12
2.71036e-10
-1.80885e-15
-1.61786e-12
2.29458e-10
-1.96182e-15
-2.2783e-12
1.91456e-10
-2.43192e-15
-2.95701e-12
1.57986e-10
-2.51632e-15
-3.53618e-12
1.29369e-10
-2.37005e-15
-3.86041e-12
1.05464e-10
-1.98853e-15
-3.76961e-12
8.58614e-11
-1.42132e-15
-3.13722e-12
6.99975e-11
-5.56911e-16
-1.88813e-12
5.72713e-11
-1.4222e-15
-5.55085e-13
3.24472e-10
-8.2938e-17
-1.13503e-12
2.85797e-10
-1.77233e-15
-1.82562e-12
2.46515e-10
-1.90168e-15
-2.6423e-12
2.08971e-10
-2.74528e-15
-3.52853e-12
1.74727e-10
-2.86067e-15
-4.36083e-12
1.44635e-10
-2.76515e-15
-4.97051e-12
1.18959e-10
-2.40256e-15
-5.17945e-12
9.75405e-11
-1.791e-15
-4.84464e-12
7.99762e-11
-9.39563e-16
-3.87978e-12
6.57379e-11
9.30687e-17
-2.25865e-12
5.42732e-11
-9.60074e-16
-5.68303e-13
3.25916e-10
-8.94518e-16
-1.20336e-12
2.94211e-10
-1.95618e-15
-1.99699e-12
2.59332e-10
-2.11051e-15
-2.97399e-12
2.23972e-10
-3.0027e-15
-4.08175e-12
1.90254e-10
-3.09519e-15
-5.1901e-12
1.59576e-10
-3.08685e-15
-6.11375e-12
1.32678e-10
-2.75781e-15
-6.65185e-12
1.0976e-10
-2.14099e-15
-6.6399e-12
9.06414e-11
-1.31236e-15
-5.97684e-12
7.49358e-11
-3.50602e-16
-4.63028e-12
6.21553e-11
8.65205e-16
-2.62371e-12
5.1806e-11
-8.558e-16
-5.58746e-13
3.17915e-10
-1.20539e-15
-1.2295e-12
2.94899e-10
-1.36313e-15
-2.11207e-12
2.6639e-10
-1.67584e-15
-3.24485e-12
2.35095e-10
-2.8142e-15
-4.58232e-12
2.03451e-10
-3.02589e-15
-5.98815e-12
1.7336e-10
-3.23402e-15
-7.25745e-12
1.46049e-10
-2.95692e-15
-8.16086e-12
1.2214e-10
-2.43077e-15
-8.50618e-12
1.01768e-10
-1.66788e-15
-8.172e-12
8.47431e-11
-7.45914e-16
-7.11661e-12
7.07011e-11
2.6253e-16
-5.36699e-12
5.92072e-11
1.51738e-15
-2.97935e-12
4.98322e-11
-4.93384e-16
-5.26132e-13
3.00562e-10
-5.57235e-16
-1.20636e-12
2.871e-10
-7.36799e-16
-2.15263e-12
2.66471e-10
-1.6154e-15
-3.42333e-12
2.40983e-10
-2.50344e-15
-4.98669e-12
2.13087e-10
-2.81595e-15
-6.70428e-12
1.84969e-10
-3.10658e-15
-8.35039e-12
1.58304e-10
-2.89889e-15
-9.66102e-12
1.34144e-10
-2.51221e-15
-1.0408e-11
1.12994e-10
-1.89402e-15
-1.04421e-11
9.4939e-11
-1.10797e-15
-9.70679e-12
7.97863e-11
-2.76306e-16
-8.23023e-12
6.72122e-11
5.84012e-16
-6.08174e-12
5.68423e-11
1.83863e-15
-3.32763e-12
4.83139e-11
-3.78659e-16
-4.73726e-13
2.751e-10
-1.67462e-16
-1.1335e-12
2.70945e-10
-4.52128e-16
-2.10705e-12
2.58932e-10
-1.17634e-15
-3.48019e-12
2.40568e-10
-1.61054e-15
-5.24612e-12
2.17954e-10
-2.00702e-15
-7.274e-12
1.93292e-10
-2.38518e-15
-9.32009e-12
1.68513e-10
-2.34716e-15
-1.10812e-11
1.4506e-10
-2.21463e-15
-1.22835e-11
1.23814e-10
-1.83153e-15
-1.27392e-11
1.05176e-10
-1.33786e-15
-1.23689e-11
8.91953e-11
-7.98957e-16
-1.11969e-11
7.56964e-11
-2.48631e-16
-9.30451e-12
6.44066e-11
3.04291e-16
-6.77861e-12
5.50157e-11
1.3032e-15
-3.68083e-12
4.72294e-11
-3.55841e-16
-4.05778e-14
1.12754e-10
-4.81787e-16
-8.64657e-14
1.34244e-10
-2.2188e-16
-9.13694e-14
1.063e-10
-6.20737e-16
-1.37808e-13
1.58313e-10
-2.9792e-16
-1.93769e-13
1.2593e-10
-3.99671e-16
-1.66375e-13
9.97977e-11
-7.81205e-16
-1.94529e-13
1.84773e-10
-3.9057e-16
-3.0745e-13
1.47815e-10
-5.24208e-16
-3.51184e-13
1.17675e-10
-5.86431e-16
-2.79242e-13
9.33791e-11
-9.83239e-16
-2.56202e-13
2.13196e-10
-5.04017e-16
-4.32206e-13
1.71767e-10
-6.74684e-16
-5.54775e-13
1.37521e-10
-7.69118e-16
-5.86871e-13
1.09625e-10
-8.63492e-16
-4.42528e-13
8.71743e-11
-1.25708e-15
-3.21886e-13
2.42834e-10
-6.38198e-16
-5.67099e-13
1.97385e-10
-8.53699e-16
-7.76712e-13
1.59157e-10
-9.89984e-16
-9.23356e-13
1.27595e-10
-1.10977e-15
-9.26284e-13
1.01926e-10
-1.08108e-15
-6.65004e-13
8.1306e-11
-1.47857e-15
-3.8988e-13
2.72582e-10
-7.73422e-16
-7.10026e-13
2.23979e-10
-1.06464e-15
-1.01526e-12
1.82206e-10
-1.25138e-15
-1.28789e-12
1.47113e-10
-1.40462e-15
-1.45188e-12
1.18188e-10
-1.39477e-15
-1.38677e-12
9.47076e-11
-1.23297e-15
-9.48862e-13
7.58792e-11
-2.04719e-15
-4.57466e-13
3.00905e-10
-8.5582e-16
-8.57157e-13
2.5054e-10
-1.30584e-15
-1.26663e-12
2.06034e-10
-1.54457e-15
-1.67753e-12
1.6783e-10
-1.75307e-15
-2.01793e-12
1.35791e-10
-1.76349e-15
-2.16606e-12
1.09435e-10
-1.59395e-15
-1.97184e-12
8.80785e-11
-1.19377e-15
-1.28768e-12
7.0974e-11
-1.69268e-15
-5.20433e-13
3.25912e-10
-6.15923e-16
-1.00239e-12
2.75699e-10
-1.57084e-15
-1.52418e-12
2.29736e-10
-1.84085e-15
-2.08617e-12
1.89176e-10
-2.16083e-15
-2.62e-12
1.54423e-10
-2.18933e-15
-3.00095e-12
1.25336e-10
-2.01156e-15
-3.07013e-12
1.01453e-10
-1.58135e-15
-2.66752e-12
8.21255e-11
-9.57124e-16
-1.66849e-12
6.66459e-11
-2.61535e-15
-5.7382e-13
3.45423e-10
-8.85994e-16
-1.13712e-12
2.97718e-10
-1.92775e-15
-1.77713e-12
2.52046e-10
-2.07866e-15
-2.50258e-12
2.10304e-10
-2.58286e-15
-3.24811e-12
1.73538e-10
-2.65093e-15
-3.88429e-12
1.42104e-10
-2.47772e-15
-4.24044e-12
1.15846e-10
-2.02676e-15
-4.14071e-12
9.43135e-11
-1.35925e-15
-3.44605e-12
7.68879e-11
-3.64766e-16
-2.074e-12
6.29089e-11
-1.40702e-15
-6.11186e-13
3.57264e-10
-2.57301e-16
-1.24976e-12
3.14681e-10
-1.92906e-15
-2.01014e-12
2.71429e-10
-2.12243e-15
-2.90935e-12
2.30089e-10
-2.98887e-15
-3.88515e-12
1.92385e-10
-3.09936e-15
-4.80156e-12
1.59252e-10
-2.97682e-15
-5.47285e-12
1.30981e-10
-2.52582e-15
-5.70291e-12
1.07398e-10
-1.79518e-15
-5.33425e-12
8.80584e-11
-7.68736e-16
-4.27189e-12
7.23811e-11
4.61391e-16
-2.48692e-12
5.97579e-11
-1.26993e-15
-6.27138e-13
3.59652e-10
-1.01385e-15
-1.32794e-12
3.24665e-10
-2.23403e-15
-2.20372e-12
2.86176e-10
-2.35068e-15
-3.28186e-12
2.47155e-10
-3.38575e-15
-4.50428e-12
2.09947e-10
-3.46388e-15
-5.72735e-12
1.76094e-10
-3.42462e-15
-6.74661e-12
1.46411e-10
-3.00849e-15
-7.3404e-12
1.2112e-10
-2.25097e-15
-7.32721e-12
1.00023e-10
-1.2104e-15
-6.59551e-12
8.26919e-11
1.24304e-17
-5.10957e-12
6.85884e-11
1.50129e-15
-2.89531e-12
5.71679e-11
-8.87134e-16
-6.17825e-13
3.51522e-10
-1.30406e-15
-1.3595e-12
3.26072e-10
-1.61425e-15
-2.33537e-12
2.9455e-10
-2.046e-15
-3.58791e-12
2.59947e-10
-3.32163e-15
-5.06677e-12
2.24957e-10
-3.57303e-15
-6.6212e-12
1.91685e-10
-3.78737e-15
-8.02468e-12
1.61488e-10
-3.40595e-15
-9.02358e-12
1.3505e-10
-2.71119e-15
-9.4054e-12
1.12525e-10
-1.69213e-15
-9.03588e-12
9.37005e-11
-4.57585e-16
-7.86892e-12
7.81741e-11
9.18426e-16
-5.93434e-12
6.54652e-11
2.53973e-15
-3.29431e-12
5.50992e-11
-8.44312e-16
-5.82817e-13
3.32934e-10
-8.17308e-16
-1.33633e-12
3.18022e-10
-8.57457e-16
-2.38454e-12
2.95171e-10
-2.06082e-15
-3.79211e-12
2.66938e-10
-3.23504e-15
-5.52387e-12
2.36037e-10
-3.57731e-15
-7.42647e-12
2.0489e-10
-3.92621e-15
-9.24986e-12
1.75353e-10
-3.59111e-15
-1.07016e-11