/*--------------------------------*- C++ -*----------------------------------*\
  =========                 |
  \\      /  F ield         | OpenFOAM: The Open Source CFD Toolbox
   \\    /   O peration     | Website:  https://openfoam.org
    \\  /    A nd           | Version:  7
     \\/     M anipulation  |
\*---------------------------------------------------------------------------*/
FoamFile
{
    version     2.0;
    format      ascii;
    class       volVectorField;
    location    "100";
    object      U;
}
// * * * * * * * * * * * * * * * * * * * * * * * * * * * * * * * * * * * * * //

dimensions      [0 1 -1 0 0 0 0];

internalField   nonuniform List<vector> 
43144
(
(0.0333626 -9.20758e-10 -1.98534e-07)
(0.0333626 -2.3424e-09 -1.98535e-07)
(0.0333626 -9.16151e-10 -6.46805e-07)
(0.0333816 -5.64831e-10 -4.85497e-07)
(0.0333626 -3.34397e-09 -1.98534e-07)
(0.0333626 -2.33749e-09 -6.46817e-07)
(0.0333816 -1.24451e-09 -4.85502e-07)
(0.0333625 -9.22655e-10 -1.21061e-06)
(0.0333816 -5.7226e-10 -1.58205e-06)
(0.0334213 -1.18539e-09 -9.80687e-07)
(0.0333626 -4.16321e-09 -1.98521e-07)
(0.0333626 -3.32107e-09 -6.46791e-07)
(0.0333816 -1.57217e-09 -4.85509e-07)
(0.0333625 -2.27839e-09 -1.21063e-06)
(0.0333816 -1.26865e-09 -1.58206e-06)
(0.0334213 -2.81628e-09 -9.80728e-07)
(0.0333624 -9.202e-10 -1.91608e-06)
(0.0333815 -5.94059e-10 -2.96197e-06)
(0.0334212 -1.28213e-09 -3.19604e-06)
(0.0334951 -1.93794e-09 -1.86144e-06)
(0.0333626 -4.72202e-09 -1.98523e-07)
(0.0333626 -4.14584e-09 -6.46776e-07)
(0.0333816 -1.96277e-09 -4.85517e-07)
(0.0333625 -3.24736e-09 -1.21057e-06)
(0.0333816 -1.60519e-09 -1.58208e-06)
(0.0334213 -3.75317e-09 -9.80761e-07)
(0.0333624 -2.17183e-09 -1.91605e-06)
(0.0333815 -1.33058e-09 -2.96201e-06)
(0.0334212 -2.98354e-09 -3.19608e-06)
(0.0334951 -4.51668e-09 -1.86149e-06)
(0.0333622 -6.84214e-10 -2.7893e-06)
(0.0333813 -7.18445e-10 -4.68949e-06)
(0.033421 -1.2795e-09 -5.98418e-06)
(0.033495 -2.04254e-09 -6.06625e-06)
(0.0336245 -2.92104e-09 -3.39746e-06)
(0.0333626 -5.14058e-09 -1.98497e-07)
(0.0333626 -4.69197e-09 -6.46742e-07)
(0.0333816 -2.29562e-09 -4.85538e-07)
(0.0333625 -4.06176e-09 -1.21054e-06)
(0.0333816 -2.01432e-09 -1.58212e-06)
(0.0334213 -4.69709e-09 -9.80795e-07)
(0.0333624 -3.0614e-09 -1.91595e-06)
(0.0333815 -1.71256e-09 -2.96206e-06)
(0.0334212 -3.88531e-09 -3.19611e-06)
(0.0334951 -5.92607e-09 -1.86152e-06)
(0.0333622 -1.63206e-09 -2.78927e-06)
(0.0333813 -1.58344e-09 -4.68953e-06)
(0.033421 -2.97728e-09 -5.98415e-06)
(0.033495 -4.70368e-09 -6.0663e-06)
(0.0336245 -6.87078e-09 -3.39757e-06)
(0.0333619 -7.12269e-10 -3.8579e-06)
(0.033381 -7.32671e-10 -6.8309e-06)
(0.0334207 -1.21486e-09 -9.4732e-06)
(0.0334947 -2.04951e-09 -1.13581e-05)
(0.0336243 -3.17499e-09 -1.10725e-05)
(0.0338404 -4.18022e-09 -5.98155e-06)
(0.0333626 -5.49026e-09 -1.98529e-07)
(0.0333626 -5.15383e-09 -6.46713e-07)
(0.0333816 -2.62182e-09 -4.85553e-07)
(0.0333625 -4.60573e-09 -1.21045e-06)
(0.0333816 -2.35673e-09 -1.58217e-06)
(0.0334213 -5.47565e-09 -9.80821e-07)
(0.0333624 -3.81858e-09 -1.91584e-06)
(0.0333815 -2.14647e-09 -2.96215e-06)
(0.0334212 -4.80361e-09 -3.19614e-06)
(0.0334951 -7.37424e-09 -1.86156e-06)
(0.0333622 -2.43325e-09 -2.78919e-06)
(0.0333813 -2.02038e-09 -4.68958e-06)
(0.033421 -3.87586e-09 -5.98413e-06)
(0.033495 -6.07912e-09 -6.06635e-06)
(0.0336245 -9.0684e-09 -3.39765e-06)
(0.0333619 -1.62521e-09 -3.85791e-06)
(0.033381 -1.63722e-09 -6.83091e-06)
(0.0334207 -2.86584e-09 -9.47318e-06)
(0.0334947 -4.74118e-09 -1.13581e-05)
(0.0336243 -7.30974e-09 -1.10726e-05)
(0.0338404 -9.74921e-09 -5.98172e-06)
(0.0333612 -6.22675e-10 -5.14372e-06)
(0.0333803 -7.7622e-10 -9.45257e-06)
(0.0334201 -1.26838e-09 -1.3797e-05)
(0.0334941 -2.12707e-09 -1.79809e-05)
(0.0336238 -3.16204e-09 -2.07317e-05)
(0.03384 -4.55872e-09 -1.94942e-05)
(0.0341833 -5.61347e-09 -1.01576e-05)
(0.0333626 -5.71236e-09 -1.98467e-07)
(0.0333626 -5.465e-09 -6.46686e-07)
(0.0333816 -2.93557e-09 -4.8559e-07)
(0.0333625 -5.0414e-09 -1.21041e-06)
(0.0333816 -2.70031e-09 -1.58223e-06)
(0.0334213 -6.11872e-09 -9.80844e-07)
(0.0333624 -4.35886e-09 -1.91568e-06)
(0.0333815 -2.50507e-09 -2.96223e-06)
(0.0334212 -5.55105e-09 -3.19616e-06)
(0.0334951 -8.54476e-09 -1.8616e-06)
(0.0333622 -3.15576e-09 -2.7891e-06)
(0.0333813 -2.47016e-09 -4.68966e-06)
(0.033421 -4.79388e-09 -5.98411e-06)
(0.033495 -7.51548e-09 -6.0664e-06)
(0.0336245 -1.13097e-08 -3.39774e-06)
(0.0333619 -2.36936e-09 -3.85789e-06)
(0.033381 -2.13541e-09 -6.83093e-06)
(0.0334207 -3.76242e-09 -9.47317e-06)
(0.0334947 -6.14664e-09 -1.13581e-05)
(0.0336243 -9.41656e-09 -1.10727e-05)
(0.0338404 -1.27668e-08 -5.98185e-06)
(0.0333612 -1.44329e-09 -5.14375e-06)
(0.0333803 -1.71906e-09 -9.45257e-06)
(0.0334201 -2.96632e-09 -1.3797e-05)
(0.0334941 -4.89445e-09 -1.79809e-05)
(0.0336238 -7.31e-09 -2.07317e-05)
(0.03384 -1.04108e-08 -1.94944e-05)
(0.0341833 -1.30842e-08 -1.01579e-05)
(0.0333603 -9.07525e-10 -6.65808e-06)
(0.0333793 -6.90833e-10 -1.26082e-05)
(0.033419 -1.27208e-09 -1.90901e-05)
(0.0334929 -2.10555e-09 -2.6188e-05)
(0.0336227 -3.11028e-09 -3.28187e-05)
(0.0338391 -4.54475e-09 -3.64999e-05)
(0.0341827 -6.28694e-09 -3.31048e-05)
(0.0347027 -6.99748e-09 -1.6648e-05)
(0.0333626 -5.81775e-09 -1.98502e-07)
(0.0333626 -5.6826e-09 -6.46608e-07)
(0.0333816 -3.20004e-09 -4.85594e-07)
(0.0333625 -5.33532e-09 -1.21029e-06)
(0.0333816 -2.99588e-09 -1.58229e-06)
(0.0334213 -6.62416e-09 -9.80855e-07)
(0.0333624 -4.81478e-09 -1.91556e-06)
(0.0333815 -2.83242e-09 -2.96234e-06)
(0.0334212 -6.16631e-09 -3.19618e-06)
(0.0334951 -9.52751e-09 -1.86164e-06)
(0.0333622 -3.74964e-09 -2.78898e-06)
(0.0333813 -2.80741e-09 -4.68974e-06)
(0.033421 -5.53834e-09 -5.98409e-06)
(0.033495 -8.66822e-09 -6.06646e-06)
(0.0336245 -1.31435e-08 -3.39782e-06)
(0.0333619 -3.02627e-09 -3.85786e-06)
(0.033381 -2.62462e-09 -6.83097e-06)
(0.0334207 -4.69154e-09 -9.47317e-06)
(0.0334947 -7.59586e-09 -1.13582e-05)
(0.0336243 -1.16046e-08 -1.10727e-05)
(0.0338404 -1.58503e-08 -5.98199e-06)
(0.0333612 -2.15335e-09 -5.14378e-06)
(0.0333803 -2.23663e-09 -9.45257e-06)
(0.0334201 -3.86867e-09 -1.37971e-05)
(0.0334941 -6.32611e-09 -1.79809e-05)
(0.0336238 -9.43729e-09 -2.07317e-05)
(0.03384 -1.32944e-08 -1.94946e-05)
(0.0341833 -1.70747e-08 -1.01581e-05)
(0.0333603 -2.08148e-09 -6.65809e-06)
(0.0333793 -1.52462e-09 -1.26081e-05)
(0.033419 -2.97331e-09 -1.90901e-05)
(0.0334929 -4.85679e-09 -2.6188e-05)
(0.0336227 -7.24794e-09 -3.28187e-05)
(0.0338391 -1.0436e-08 -3.64999e-05)
(0.0341827 -1.42544e-08 -3.31051e-05)
(0.0347027 -1.61239e-08 -1.66485e-05)
(0.0333588 -5.52516e-10 -8.38218e-06)
(0.0333777 -3.11809e-10 -1.63158e-05)
(0.0334171 -1.28052e-09 -2.54589e-05)
(0.0334908 -2.10152e-09 -3.62324e-05)
(0.0336205 -3.23483e-09 -4.77948e-05)
(0.0338371 -4.60901e-09 -5.77781e-05)
(0.0341811 -6.25217e-09 -6.19824e-05)
(0.0347017 -8.04291e-09 -5.42574e-05)
(0.0354547 -8.44018e-09 -2.63904e-05)
(0.0333626 -5.76253e-09 -1.98411e-07)
(0.0333626 -5.77092e-09 -6.46564e-07)
(0.0333816 -3.40147e-09 -4.85628e-07)
(0.0333625 -5.5421e-09 -1.21022e-06)
(0.0333816 -3.2494e-09 -1.58233e-06)
(0.0334213 -7.00905e-09 -9.80873e-07)
(0.0333624 -5.07681e-09 -1.91539e-06)
(0.0333815 -3.10687e-09 -2.96242e-06)
(0.0334212 -6.65915e-09 -3.1962e-06)
(0.0334951 -1.03047e-08 -1.86167e-06)
(0.0333622 -4.26456e-09 -2.78888e-06)
(0.0333813 -3.10674e-09 -4.68984e-06)
(0.033421 -6.15986e-09 -5.98407e-06)
(0.033495 -9.63082e-09 -6.06652e-06)
(0.0336245 -1.46588e-08 -3.39789e-06)
(0.0333619 -3.60192e-09 -3.85781e-06)
(0.033381 -2.98934e-09 -6.831e-06)
(0.0334207 -5.46532e-09 -9.47317e-06)
(0.0334947 -8.75175e-09 -1.13582e-05)
(0.0336243 -1.33745e-08 -1.10728e-05)
(0.0338404 -1.8316e-08 -5.98211e-06)
(0.0333612 -2.78295e-09 -5.14384e-06)
(0.0333803 -2.72328e-09 -9.45255e-06)
(0.0334201 -4.79544e-09 -1.37971e-05)
(0.0334941 -7.77977e-09 -1.7981e-05)
(0.0336238 -1.16402e-08 -2.07317e-05)
(0.03384 -1.63141e-08 -1.94947e-05)
(0.0341833 -2.10923e-08 -1.01584e-05)
(0.0333603 -3.03097e-09 -6.65809e-06)
(0.0333793 -1.95561e-09 -1.26081e-05)
(0.033419 -3.88396e-09 -1.90901e-05)
(0.0334929 -6.29486e-09 -2.6188e-05)
(0.0336227 -9.40705e-09 -3.28187e-05)
(0.0338391 -1.33818e-08 -3.65e-05)
(0.0341827 -1.80021e-08 -3.31053e-05)
(0.0347027 -2.07162e-08 -1.66488e-05)
(0.0333588 -1.29378e-09 -8.38219e-06)
(0.0333777 -6.88865e-10 -1.63158e-05)
(0.0334171 -2.99197e-09 -2.54589e-05)
(0.0334908 -4.83994e-09 -3.62324e-05)
(0.0336205 -7.49503e-09 -4.77948e-05)
(0.0338371 -1.05915e-08 -5.77781e-05)
(0.0341811 -1.4242e-08 -6.19824e-05)
(0.0347017 -1.79538e-08 -5.42578e-05)
(0.0354547 -1.91356e-08 -2.63912e-05)
(0.0333566 -9.29567e-10 -1.02637e-05)
(0.0333753 -5.93063e-10 -2.05398e-05)
(0.0334142 -1.37461e-09 -3.29462e-05)
(0.0334874 -2.04862e-09 -4.83156e-05)
(0.0336167 -3.23592e-09 -6.61194e-05)
(0.0338332 -4.65424e-09 -8.4136e-05)
(0.0341776 -6.22266e-09 -9.81079e-05)
(0.034699 -8.01852e-09 -0.000101582)
(0.0354531 -1.00862e-08 -8.60073e-05)
(0.0364993 -8.99738e-09 -4.06048e-05)
(0.0333626 -5.61653e-09 -1.98444e-07)
(0.0333626 -5.70581e-09 -6.46437e-07)
(0.0333816 -3.5119e-09 -4.85616e-07)
(0.0333625 -5.60632e-09 -1.21007e-06)
(0.0333816 -3.43266e-09 -1.58238e-06)
(0.0334213 -7.27964e-09 -9.80878e-07)
(0.0333624 -5.30691e-09 -1.91527e-06)
(0.0333815 -3.3318e-09 -2.96251e-06)
(0.0334212 -7.03268e-09 -3.19621e-06)
(0.0334951 -1.08862e-08 -1.8617e-06)
(0.0333622 -4.63317e-09 -2.78874e-06)
(0.0333813 -3.31626e-09 -4.68992e-06)
(0.033421 -6.6566e-09 -5.98407e-06)
(0.033495 -1.03865e-08 -6.06657e-06)
(0.0336245 -1.58354e-08 -3.39793e-06)
(0.0333619 -4.09883e-09 -3.85778e-06)
(0.033381 -3.28734e-09 -6.83105e-06)
(0.0334207 -6.10608e-09 -9.47316e-06)
(0.0334947 -9.70599e-09 -1.13583e-05)
(0.0336243 -1.48256e-08 -1.10729e-05)
(0.0338404 -2.03346e-08 -5.98222e-06)
(0.0333612 -3.36919e-09 -5.14389e-06)
(0.0333803 -3.07674e-09 -9.45253e-06)
(0.0334201 -5.5459e-09 -1.37971e-05)
(0.0334941 -8.90948e-09 -1.7981e-05)
(0.0336238 -1.34185e-08 -2.07317e-05)
(0.03384 -1.86978e-08 -1.94949e-05)
(0.0341833 -2.42114e-08 -1.01586e-05)
(0.0333603 -3.77606e-09 -6.65808e-06)
(0.0333793 -2.37922e-09 -1.26079e-05)
(0.033419 -4.81906e-09 -1.90901e-05)
(0.0334929 -7.75787e-09 -2.6188e-05)
(0.0336227 -1.16456e-08 -3.28188e-05)
(0.0338391 -1.64317e-08 -3.65e-05)
(0.0341827 -2.1895e-08 -3.31056e-05)
(0.0347027 -2.52811e-08 -1.66492e-05)
(0.0333588 -1.8907e-09 -8.38218e-06)
(0.0333777 -7.88097e-10 -1.63158e-05)
(0.0334171 -3.91731e-09 -2.54589e-05)
(0.0334908 -6.2654e-09 -3.62324e-05)
(0.0336205 -9.69403e-09 -4.77948e-05)
(0.0338371 -1.35939e-08 -5.77782e-05)
(0.0341811 -1.80689e-08 -6.19824e-05)
(0.0347017 -2.21868e-08 -5.42582e-05)
(0.0354547 -2.39361e-08 -2.63917e-05)
(0.0333566 -2.12627e-09 -1.02637e-05)
(0.0333753 -1.32284e-09 -2.05398e-05)
(0.0334142 -3.20073e-09 -3.29462e-05)
(0.0334874 -4.71533e-09 -4.83156e-05)
(0.0336167 -7.50382e-09 -6.61194e-05)
(0.0338332 -1.06939e-08 -8.4136e-05)
(0.0341776 -1.42333e-08 -9.81079e-05)
(0.034699 -1.80163e-08 -0.000101582)
(0.0354531 -2.19617e-08 -8.6008e-05)
(0.0364993 -1.9338e-08 -4.0606e-05)
(0.0333537 -4.61377e-10 -1.21977e-05)
(0.0333717 -1.9238e-10 -2.51453e-05)
(0.0334097 -1.22732e-09 -4.14698e-05)
(0.033482 -1.86648e-09 -6.25113e-05)
(0.0336105 -3.25139e-09 -8.81521e-05)
(0.0338266 -4.65518e-09 -0.000116373)
(0.034171 -6.32329e-09 -0.000142841)
(0.0346931 -8.10815e-09 -0.000160768)
(0.0354485 -9.89542e-09 -0.000161011)
(0.0364967 -1.15018e-08 -0.000132328)
(0.0378988 -8.728e-09 -6.09161e-05)
(0.0333626 -5.42567e-09 -1.98366e-07)
(0.0333626 -5.58735e-09 -6.4641e-07)
(0.0333816 -3.54903e-09 -4.85642e-07)
(0.0333625 -5.58546e-09 -1.20997e-06)
(0.0333816 -3.52787e-09 -1.58239e-06)
(0.0334213 -7.44869e-09 -9.80894e-07)
(0.0333624 -5.3796e-09 -1.91512e-06)
(0.0333815 -3.47963e-09 -2.96256e-06)
(0.0334212 -7.29727e-09 -3.19622e-06)
(0.0334951 -1.12744e-08 -1.86172e-06)
(0.0333622 -4.93657e-09 -2.78866e-06)
(0.0333813 -3.49191e-09 -4.69e-06)
(0.033421 -7.03425e-09 -5.98406e-06)
(0.033495 -1.09481e-08 -6.06662e-06)
(0.0336245 -1.67121e-08 -3.398e-06)
(0.0333619 -4.44954e-09 -3.85772e-06)
(0.033381 -3.48409e-09 -6.83108e-06)
(0.0334207 -6.63021e-09 -9.47317e-06)
(0.0334947 -1.04502e-08 -1.13583e-05)
(0.0336243 -1.59709e-08 -1.1073e-05)
(0.0338404 -2.18672e-08 -5.98231e-06)
(0.0333612 -3.86443e-09 -5.14397e-06)
(0.0333803 -3.35749e-09 -9.4525e-06)
(0.0334201 -6.17243e-09 -1.37971e-05)
(0.0334941 -9.84152e-09 -1.7981e-05)
(0.0336238 -1.48875e-08 -2.07317e-05)
(0.03384 -2.06356e-08 -1.9495e-05)
(0.0341833 -2.66564e-08 -1.01588e-05)
(0.0333603 -4.36154e-09 -6.65807e-06)
(0.0333793 -2.70267e-09 -1.26078e-05)
(0.033419 -5.57519e-09 -1.90901e-05)
(0.0334929 -8.90456e-09 -2.61879e-05)
(0.0336227 -1.34631e-08 -3.28188e-05)
(0.0338391 -1.88306e-08 -3.65001e-05)
(0.0341827 -2.48543e-08 -3.31058e-05)
(0.0347027 -2.86124e-08 -1.66495e-05)
(0.0333588 -2.41248e-09 -8.38217e-06)
(0.0333777 -1.01267e-09 -1.63157e-05)
(0.0334171 -4.8609e-09 -2.54589e-05)
(0.0334908 -7.71339e-09 -3.62324e-05)
(0.0336205 -1.19474e-08 -4.77949e-05)
(0.0338371 -1.66726e-08 -5.77782e-05)
(0.0341811 -2.20038e-08 -6.19824e-05)
(0.0347017 -2.65791e-08 -5.42587e-05)
(0.0354547 -2.83813e-08 -2.63923e-05)
(0.0333566 -3.0674e-09 -1.02637e-05)
(0.0333753 -1.64518e-09 -2.05398e-05)
(0.0334142 -4.21848e-09 -3.29462e-05)
(0.0334874 -6.08156e-09 -4.83156e-05)
(0.0336167 -9.72172e-09 -6.61194e-05)
(0.0338332 -1.37237e-08 -8.4136e-05)
(0.0341776 -1.8118e-08 -9.8108e-05)
(0.034699 -2.24117e-08 -0.000101582)
(0.0354531 -2.61167e-08 -8.60085e-05)
(0.0364993 -2.22006e-08 -4.06068e-05)
(0.0333537 -1.05666e-09 -1.21977e-05)
(0.0333717 -4.1925e-10 -2.51453e-05)
(0.0334097 -2.86226e-09 -4.14698e-05)
(0.033482 -4.30555e-09 -6.25113e-05)
(0.0336105 -7.53517e-09 -8.81521e-05)
(0.0338266 -1.06982e-08 -0.000116373)
(0.034171 -1.44471e-08 -0.000142841)
(0.0346931 -1.82522e-08 -0.000160768)
(0.0354485 -2.17066e-08 -0.000161011)
(0.0364967 -2.36785e-08 -0.000132329)
(0.0378988 -1.64289e-08 -6.09177e-05)
(0.0333497 -3.65332e-10 -1.4021e-05)
(0.0333668 -5.28733e-10 -2.9874e-05)
(0.0334032 -1.29873e-09 -5.07582e-05)
(0.0334737 -1.92953e-09 -7.86606e-05)
(0.0336006 -3.32338e-09 -0.00011402)
(0.0338154 -4.64511e-09 -0.000155105)
(0.0341594 -6.34843e-09 -0.000197514)
(0.0346819 -8.1764e-09 -0.000234015)
(0.0354387 -9.84345e-09 -0.000254773)
(0.0364892 -1.13279e-08 -0.000247694)
(0.0378945 -1.24931e-08 -0.000198507)
(0.0397172 -6.34126e-09 -8.95567e-05)
(0.0333626 -5.22459e-09 -1.98405e-07)
(0.0333626 -5.39545e-09 -6.46302e-07)
(0.0333816 -3.52824e-09 -4.85628e-07)
(0.0333625 -5.47911e-09 -1.20986e-06)
(0.0333816 -3.56588e-09 -1.58242e-06)
(0.0334213 -7.51502e-09 -9.80895e-07)
(0.0333624 -5.40329e-09 -1.91501e-06)
(0.0333815 -3.5652e-09 -2.9626e-06)
(0.0334212 -7.46301e-09 -3.19624e-06)
(0.0334951 -1.14765e-08 -1.86174e-06)
(0.0333622 -5.07474e-09 -2.78853e-06)
(0.0333813 -3.58795e-09 -4.69006e-06)
(0.033421 -7.30504e-09 -5.98406e-06)
(0.033495 -1.13201e-08 -6.06666e-06)
(0.0336245 -1.73058e-08 -3.39803e-06)
(0.0333619 -4.76291e-09 -3.85768e-06)
(0.033381 -3.631e-09 -6.83112e-06)
(0.0334207 -7.02145e-09 -9.47317e-06)
(0.0334947 -1.09972e-08 -1.13584e-05)
(0.0336243 -1.68186e-08 -1.10731e-05)
(0.0338404 -2.2946e-08 -5.98239e-06)
(0.0333612 -4.27377e-09 -5.14402e-06)
(0.0333803 -3.52164e-09 -9.45246e-06)
(0.0334201 -6.67693e-09 -1.37971e-05)
(0.0334941 -1.05508e-08 -1.79811e-05)
(0.0336238 -1.60427e-08 -2.07318e-05)
(0.03384 -2.21054e-08 -1.94951e-05)
(0.0341833 -2.83839e-08 -1.01589e-05)
(0.0333603 -4.78924e-09 -6.65805e-06)
(0.0333793 -2.96236e-09 -1.26076e-05)
(0.033419 -6.20672e-09 -1.90901e-05)
(0.0334929 -9.84305e-09 -2.61879e-05)
(0.0336227 -1.49522e-08 -3.28189e-05)
(0.0338391 -2.07693e-08 -3.65002e-05)
(0.0341827 -2.71538e-08 -3.3106e-05)
(0.0347027 -3.09927e-08 -1.66498e-05)
(0.0333588 -2.93335e-09 -8.38216e-06)
(0.0333777 -1.29602e-09 -1.63157e-05)
(0.0334171 -5.6223e-09 -2.5459e-05)
(0.0334908 -8.84356e-09 -3.62324e-05)
(0.0336205 -1.37336e-08 -4.77949e-05)
(0.0338371 -1.90636e-08 -5.77783e-05)
(0.0341811 -2.49857e-08 -6.19825e-05)
(0.0347017 -2.96728e-08 -5.42591e-05)
(0.0354547 -3.09614e-08 -2.63927e-05)
(0.0333566 -3.7926e-09 -1.02637e-05)
(0.0333753 -1.98121e-09 -2.05398e-05)
(0.0334142 -5.20918e-09 -3.29462e-05)
(0.0334874 -7.48502e-09 -4.83155e-05)
(0.0336167 -1.19955e-08 -6.61194e-05)
(0.0338332 -1.68223e-08 -8.4136e-05)
(0.0341776 -2.20982e-08 -9.8108e-05)
(0.034699 -2.68819e-08 -0.000101582)
(0.0354531 -3.02539e-08 -8.6009e-05)
(0.0364993 -2.42878e-08 -4.06077e-05)
(0.0333537 -1.52155e-09 -1.21976e-05)
(0.0333717 -3.75388e-10 -2.51453e-05)
(0.0334097 -3.75e-09 -4.14698e-05)
(0.033482 -5.50432e-09 -6.25113e-05)
(0.0336105 -9.76859e-09 -8.81521e-05)
(0.0338266 -1.37305e-08 -0.000116373)
(0.034171 -1.83648e-08 -0.000142841)
(0.0346931 -2.27673e-08 -0.000160768)
(0.0354485 -2.60404e-08 -0.000161011)
(0.0364967 -2.56173e-08 -0.000132329)
(0.0378988 -1.41923e-08 -6.0919e-05)
(0.0333497 -8.27462e-10 -1.4021e-05)
(0.0333668 -1.20768e-09 -2.9874e-05)
(0.0334032 -3.01803e-09 -5.07581e-05)
(0.0334737 -4.43998e-09 -7.86606e-05)
(0.0336006 -7.69799e-09 -0.00011402)
(0.0338154 -1.06605e-08 -0.000155105)
(0.0341594 -1.45137e-08 -0.000197514)
(0.0346819 -1.84158e-08 -0.000234015)
(0.0354387 -2.16918e-08 -0.000254773)
(0.0364892 -2.35572e-08 -0.000247694)
(0.0378945 -2.29233e-08 -0.000198509)
(0.0397172 -6.06293e-09 -8.95592e-05)
(0.0333449 -3.05063e-10 -1.55383e-05)
(0.0333603 -5.81923e-10 -3.43391e-05)
(0.0333942 -1.01482e-09 -6.02867e-05)
(0.0334616 -1.67412e-09 -9.6237e-05)
(0.0335855 -3.1219e-09 -0.000143409)
(0.0337978 -4.48308e-09 -0.000200519)
(0.0341402 -6.3793e-09 -0.000263126)
(0.0346624 -8.20977e-09 -0.000323444)
(0.0354203 -1.0035e-08 -0.000370708)
(0.0364734 -1.14235e-08 -0.000391821)
(0.0378825 -1.21628e-08 -0.000371497)
(0.0397103 -1.18938e-08 -0.000291808)
(0.0420233 -5.33302e-10 -0.000129725)
(0.0333626 -5.0841e-09 -1.98345e-07)
(0.0333626 -5.21832e-09 -6.46288e-07)
(0.0333816 -3.45396e-09 -4.85647e-07)
(0.0333625 -5.30625e-09 -1.20977e-06)
(0.0333816 -3.53426e-09 -1.58242e-06)
(0.0334213 -7.47528e-09 -9.80904e-07)
(0.0333624 -5.3076e-09 -1.91489e-06)
(0.0333815 -3.58474e-09 -2.96263e-06)
(0.0334212 -7.52047e-09 -3.19624e-06)
(0.0334951 -1.14995e-08 -1.86176e-06)
(0.0333622 -5.17688e-09 -2.78847e-06)
(0.0333813 -3.64027e-09 -4.69011e-06)
(0.033421 -7.46639e-09 -5.98406e-06)
(0.033495 -1.15079e-08 -6.06668e-06)
(0.0336245 -1.76399e-08 -3.39808e-06)
(0.0333619 -4.92587e-09 -3.85762e-06)
(0.033381 -3.68827e-09 -6.83114e-06)
(0.0334207 -7.30315e-09 -9.47317e-06)
(0.0334947 -1.13545e-08 -1.13584e-05)
(0.0336243 -1.73909e-08 -1.10731e-05)
(0.0338404 -2.35817e-08 -5.98246e-06)
(0.0333612 -4.61095e-09 -5.14409e-06)
(0.0333803 -3.64123e-09 -9.45242e-06)
(0.0334201 -7.05703e-09 -1.37971e-05)
(0.0334941 -1.10712e-08 -1.79811e-05)
(0.0336238 -1.68933e-08 -2.07318e-05)
(0.03384 -2.31291e-08 -1.94953e-05)
(0.0341833 -2.94435e-08 -1.01591e-05)
(0.0333603 -5.06982e-09 -6.65802e-06)
(0.0333793 -3.14685e-09 -1.26074e-05)
(0.033419 -6.71144e-09 -1.90901e-05)
(0.0334929 -1.05541e-08 -2.61879e-05)
(0.0336227 -1.61369e-08 -3.28189e-05)
(0.0338391 -2.22311e-08 -3.65003e-05)
(0.0341827 -2.87718e-08 -3.31062e-05)
(0.0347027 -3.23485e-08 -1.66501e-05)
(0.0333588 -3.35582e-09 -8.38214e-06)
(0.0333777 -1.57549e-09 -1.63156e-05)
(0.0334171 -6.25469e-09 -2.5459e-05)
(0.0334908 -9.76878e-09 -3.62323e-05)
(0.0336205 -1.52007e-08 -4.7795e-05)
(0.0338371 -2.09857e-08 -5.77784e-05)
(0.0341811 -2.73017e-08 -6.19825e-05)
(0.0347017 -3.18295e-08 -5.42595e-05)
(0.0354547 -3.20603e-08 -2.63932e-05)
(0.0333566 -4.32148e-09 -1.02637e-05)
(0.0333753 -2.23832e-09 -2.05398e-05)
(0.0334142 -5.97162e-09 -3.29462e-05)
(0.0334874 -8.58872e-09 -4.83154e-05)
(0.0336167 -1.38e-08 -6.61194e-05)
(0.0338332 -1.92205e-08 -8.41361e-05)
(0.0341776 -2.51209e-08 -9.81081e-05)
(0.034699 -3.00042e-08 -0.000101582)
(0.0354531 -3.24502e-08 -8.60096e-05)
(0.0364993 -2.37179e-08 -4.06084e-05)
(0.0333537 -1.92193e-09 -1.21975e-05)
(0.0333717 -4.80064e-10 -2.51453e-05)
(0.0334097 -4.65037e-09 -4.14698e-05)
(0.033482 -6.79626e-09 -6.25112e-05)
(0.0336105 -1.2048e-08 -8.81521e-05)
(0.0338266 -1.68313e-08 -0.000116373)
(0.034171 -2.23676e-08 -0.000142841)
(0.0346931 -2.7306e-08 -0.000160768)
(0.0354485 -3.02815e-08 -0.000161011)
(0.0364967 -2.72686e-08 -0.00013233)
(0.0378988 -1.01381e-08 -6.09203e-05)
(0.0333497 -1.18616e-09 -1.4021e-05)
(0.0333668 -1.54685e-09 -2.98741e-05)
(0.0334032 -3.98862e-09 -5.07581e-05)
(0.0334737 -5.70006e-09 -7.86606e-05)
(0.0336006 -1.00071e-08 -0.00011402)
(0.0338154 -1.36667e-08 -0.000155105)
(0.0341594 -1.84577e-08 -0.000197514)
(0.0346819 -2.29728e-08 -0.000234015)
(0.0354387 -2.61295e-08 -0.000254773)
(0.0364892 -2.58341e-08 -0.000247694)
(0.0378945 -1.92556e-08 -0.00019851)
(0.0397172 8.06174e-09 -8.95611e-05)
(0.0333449 -6.81722e-10 -1.55383e-05)
(0.0333603 -1.30639e-09 -3.43391e-05)
(0.0333942 -2.35261e-09 -6.02867e-05)
(0.0334616 -3.85216e-09 -9.6237e-05)
(0.0335855 -7.22367e-09 -0.000143409)
(0.0337978 -1.02724e-08 -0.000200519)
(0.0341402 -1.45803e-08 -0.000263126)
(0.0346624 -1.84966e-08 -0.000323444)
(0.0354203 -2.20911e-08 -0.000370708)
(0.0364734 -2.38736e-08 -0.000391821)
(0.0378825 -2.25667e-08 -0.000371497)
(0.0397103 -1.56709e-08 -0.000291811)
(0.0420233 1.68067e-08 -0.000129729)
(0.0333393 -2.54852e-10 -1.6546e-05)
(0.0333523 -3.87139e-10 -3.80472e-05)
(0.0333824 -7.29608e-10 -6.92598e-05)
(0.0334449 -1.65185e-09 -0.000114233)
(0.0335635 -3.04837e-09 -0.000175334)
(0.033771 -4.45044e-09 -0.000252016)
(0.0341097 -6.39601e-09 -0.000339912)
(0.0346301 -8.20885e-09 -0.000430574)
(0.0353882 -1.01119e-08 -0.000512036)
(0.0364435 -1.16398e-08 -0.000569802)
(0.0378569 -1.21933e-08 -0.000587402)
(0.0396909 -1.15192e-08 -0.000545943)
(0.0420122 -8.67008e-09 -0.000422624)
(0.0448958 1.24102e-08 -0.000186163)
(0.0333626 -4.86882e-09 -1.98364e-07)
(0.0333626 -5.05892e-09 -6.46235e-07)
(0.0333816 -3.36123e-09 -4.8564e-07)
(0.0333625 -5.17042e-09 -1.20972e-06)
(0.0333816 -3.46672e-09 -1.58244e-06)
(0.0334213 -7.33921e-09 -9.80905e-07)
(0.0333624 -5.2187e-09 -1.91481e-06)
(0.0333815 -3.5463e-09 -2.96264e-06)
(0.0334212 -7.48047e-09 -3.19625e-06)
(0.0334951 -1.13557e-08 -1.86177e-06)
(0.0333622 -5.14785e-09 -2.78837e-06)
(0.0333813 -3.62505e-09 -4.69014e-06)
(0.033421 -7.52404e-09 -5.98407e-06)
(0.033495 -1.15223e-08 -6.06671e-06)
(0.0336245 -1.77126e-08 -3.3981e-06)
(0.0333619 -5.05292e-09 -3.8576e-06)
(0.033381 -3.71016e-09 -6.83117e-06)
(0.0334207 -7.46572e-09 -9.47318e-06)
(0.0334947 -1.15308e-08 -1.13584e-05)
(0.0336243 -1.77103e-08 -1.10732e-05)
(0.0338404 -2.3796e-08 -5.98252e-06)
(0.0333612 -4.80769e-09 -5.14412e-06)
(0.0333803 -3.67299e-09 -9.45237e-06)
(0.0334201 -7.32749e-09 -1.37971e-05)
(0.0334941 -1.14018e-08 -1.79811e-05)
(0.0336238 -1.74717e-08 -2.07319e-05)
(0.03384 -2.37218e-08 -1.94954e-05)
(0.0341833 -2.98618e-08 -1.01592e-05)
(0.0333603 -5.27225e-09 -6.65799e-06)
(0.0333793 -3.28696e-09 -1.26072e-05)
(0.033419 -7.09128e-09 -1.90901e-05)
(0.0334929 -1.10711e-08 -2.61879e-05)
(0.0336227 -1.69952e-08 -3.2819e-05)
(0.0338391 -2.32387e-08 -3.65004e-05)
(0.0341827 -2.97418e-08 -3.31064e-05)
(0.0347027 -3.27229e-08 -1.66503e-05)
(0.0333588 -3.75637e-09 -8.38212e-06)
(0.0333777 -1.88013e-09 -1.63156e-05)
(0.0334171 -6.75249e-09 -2.5459e-05)
(0.0334908 -1.04665e-08 -3.62323e-05)
(0.0336205 -1.63423e-08 -4.7795e-05)
(0.0338371 -2.24224e-08 -5.77784e-05)
(0.0341811 -2.89206e-08 -6.19826e-05)
(0.0347017 -3.30011e-08 -5.42598e-05)
(0.0354547 -3.15995e-08 -2.63935e-05)
(0.0333566 -4.68413e-09 -1.02636e-05)
(0.0333753 -2.44475e-09 -2.05397e-05)
(0.0334142 -6.5859e-09 -3.29462e-05)
(0.0334874 -9.49553e-09 -4.83153e-05)
(0.0336167 -1.52785e-08 -6.61194e-05)
(0.0338332 -2.11409e-08 -8.41361e-05)
(0.0341776 -2.7457e-08 -9.81081e-05)
(0.034699 -3.2162e-08 -0.000101582)
(0.0354531 -3.32227e-08 -8.601e-05)
(0.0364993 -2.0897e-08 -4.06091e-05)
(0.0333537 -2.2805e-09 -1.21974e-05)
(0.0333717 -6.45425e-10 -2.51453e-05)
(0.0334097 -5.38388e-09 -4.14698e-05)
(0.033482 -7.85453e-09 -6.25112e-05)
(0.0336105 -1.38502e-08 -8.81521e-05)
(0.0338265 -1.92287e-08 -0.000116373)
(0.034171 -2.53854e-08 -0.000142841)
(0.0346931 -3.04412e-08 -0.000160768)
(0.0354485 -3.25703e-08 -0.000161011)
(0.0364967 -2.61233e-08 -0.000132331)
(0.0378988 -1.89915e-09 -6.09214e-05)
(0.0333497 -1.49663e-09 -1.4021e-05)
(0.0333668 -1.89397e-09 -2.98741e-05)
(0.0334032 -4.91639e-09 -5.07581e-05)
(0.0334737 -7.0047e-09 -7.86606e-05)
(0.0336006 -1.23175e-08 -0.00011402)
(0.0338154 -1.6743e-08 -0.000155105)
(0.0341594 -2.24856e-08 -0.000197514)
(0.0346819 -2.75553e-08 -0.000234015)
(0.0354387 -3.04497e-08 -0.000254773)
(0.0364892 -2.76632e-08 -0.000247695)
(0.0378945 -1.45278e-08 -0.000198511)
(0.0397172 2.5817e-08 -8.9563e-05)
(0.0333449 -9.8036e-10 -1.55383e-05)
(0.0333603 -1.74631e-09 -3.43391e-05)
(0.0333942 -3.05577e-09 -6.02866e-05)
(0.0334616 -4.89857e-09 -9.62369e-05)
(0.0335855 -9.36047e-09 -0.000143409)
(0.0337978 -1.31303e-08 -0.000200519)
(0.0341402 -1.85442e-08 -0.000263126)
(0.0346624 -2.30714e-08 -0.000323444)
(0.0354203 -2.65806e-08 -0.000370709)
(0.0364734 -2.63767e-08 -0.000391821)
(0.0378825 -1.9362e-08 -0.000371497)
(0.0397103 5.17731e-10 -0.000291812)
(0.0420233 5.48317e-08 -0.000129732)
(0.0333393 -5.61573e-10 -1.6546e-05)
(0.0333523 -8.72463e-10 -3.80472e-05)
(0.0333824 -1.71171e-09 -6.92597e-05)
(0.0334449 -3.81026e-09 -0.000114233)
(0.0335635 -7.05823e-09 -0.000175334)
(0.033771 -1.01974e-08 -0.000252016)
(0.0341097 -1.46096e-08 -0.000339912)
(0.0346301 -1.84821e-08 -0.000430574)
(0.0353882 -2.22644e-08 -0.000512036)
(0.0364435 -2.43456e-08 -0.000569802)
(0.0378569 -2.28131e-08 -0.000587402)
(0.0396909 -1.53946e-08 -0.000545943)
(0.0420122 2.73796e-09 -0.000422627)
(0.0448958 6.50076e-08 -0.000186168)
(0.0333333 -2.06083e-10 -1.68914e-05)
(0.0333431 -1.71666e-10 -4.0502e-05)
(0.0333678 -5.66246e-10 -7.66915e-05)
(0.0334231 -1.50508e-09 -0.000131138)
(0.0335332 -2.59185e-09 -0.000207925)
(0.0337322 -4.04406e-09 -0.000307781)
(0.0340636 -6.09466e-09 -0.000426711)
(0.034579 -7.97828e-09 -0.000555575)
(0.035335 -1.01311e-08 -0.000680877)
(0.0363913 -1.17299e-08 -0.000786251)
(0.0378087 -1.2529e-08 -0.000853506)
(0.0396496 -1.16981e-08 -0.000862662)
(0.0419808 -8.14773e-09 -0.000790324)
(0.0448776 5.23045e-10 -0.000606336)
(0.0484319 3.77213e-08 -0.000266153)
(0.0333626 -4.60176e-09 -1.98323e-07)
(0.0333626 -4.86283e-09 -6.46195e-07)
(0.0333816 -3.20601e-09 -4.85648e-07)
(0.0333625 -5.01222e-09 -1.20965e-06)
(0.0333816 -3.36385e-09 -1.58244e-06)
(0.0334213 -7.09758e-09 -9.80906e-07)
(0.0333624 -5.08126e-09 -1.91475e-06)
(0.0333815 -3.47807e-09 -2.96266e-06)
(0.0334212 -7.33675e-09 -3.19625e-06)
(0.0334951 -1.10506e-08 -1.86177e-06)
(0.0333622 -5.07765e-09 -2.78834e-06)
(0.0333813 -3.57814e-09 -4.69016e-06)
(0.033421 -7.47875e-09 -5.98407e-06)
(0.033495 -1.137e-08 -6.06672e-06)
(0.0336245 -1.75149e-08 -3.39813e-06)
(0.0333619 -5.04308e-09 -3.85754e-06)
(0.033381 -3.66626e-09 -6.83116e-06)
(0.0334207 -7.52397e-09 -9.47318e-06)
(0.0334947 -1.15357e-08 -1.13584e-05)
(0.0336243 -1.77566e-08 -1.10733e-05)
(0.0338404 -2.35994e-08 -5.98256e-06)
(0.0333612 -4.96658e-09 -5.14419e-06)
(0.0333803 -3.67556e-09 -9.45232e-06)
(0.0334201 -7.48136e-09 -1.37971e-05)
(0.0334941 -1.15593e-08 -1.79811e-05)
(0.0336238 -1.77716e-08 -2.07319e-05)
(0.03384 -2.39026e-08 -1.94955e-05)
(0.0341833 -2.96717e-08 -1.01593e-05)
(0.0333603 -5.33905e-09 -6.65794e-06)
(0.0333793 -3.34978e-09 -1.26071e-05)
(0.033419 -7.35595e-09 -1.90901e-05)
(0.0334929 -1.13932e-08 -2.61879e-05)
(0.0336227 -1.75724e-08 -3.28191e-05)
(0.0338391 -2.38162e-08 -3.65004e-05)
(0.0341827 -3.00919e-08 -3.31066e-05)
(0.0347027 -3.21405e-08 -1.66505e-05)
(0.0333588 -4.06708e-09 -8.38209e-06)
(0.0333777 -2.1388e-09 -1.63155e-05)
(0.0334171 -7.1242e-09 -2.54591e-05)
(0.0334908 -1.09728e-08 -3.62322e-05)
(0.0336205 -1.71704e-08 -4.77951e-05)
(0.033837 -2.34009e-08 -5.77785e-05)
(0.0341811 -2.98841e-08 -6.19827e-05)
(0.0347017 -3.32225e-08 -5.42602e-05)
(0.0354547 -2.96506e-08 -2.63938e-05)
(0.0333566 -4.92609e-09 -1.02636e-05)
(0.0333753 -2.60698e-09 -2.05397e-05)
(0.0334142 -7.03975e-09 -3.29462e-05)
(0.0334874 -1.01912e-08 -4.83152e-05)
(0.0336167 -1.64258e-08 -6.61194e-05)
(0.0338332 -2.25618e-08 -8.41361e-05)
(0.0341776 -2.90962e-08 -9.81082e-05)
(0.034699 -3.33072e-08 -0.000101583)
(0.0354531 -3.24957e-08 -8.60104e-05)
(0.0364993 -1.56941e-08 -4.06097e-05)
(0.0333537 -2.56711e-09 -1.21973e-05)
(0.0333717 -8.36455e-10 -2.51452e-05)
(0.0334097 -5.98914e-09 -4.14697e-05)
(0.033482 -8.74505e-09 -6.25111e-05)
(0.0336105 -1.53228e-08 -8.81522e-05)
(0.0338265 -2.11451e-08 -0.000116373)
(0.034171 -2.77136e-08 -0.000142841)
(0.0346931 -3.2591e-08 -0.000160769)
(0.0354485 -3.34004e-08 -0.000161011)
(0.0364967 -2.27956e-08 -0.000132332)
(0.0378988 1.0037e-08 -6.09224e-05)
(0.0333497 -1.78077e-09 -1.4021e-05)
(0.0333668 -2.16522e-09 -2.98742e-05)
(0.0334032 -5.62262e-09 -5.0758e-05)
(0.0334737 -8.02368e-09 -7.86605e-05)
(0.0336006 -1.41083e-08 -0.00011402)
(0.0338154 -1.91183e-08 -0.000155105)
(0.0341594 -2.5518e-08 -0.000197514)
(0.0346819 -3.07271e-08 -0.000234015)
(0.0354387 -3.2815e-08 -0.000254773)
(0.0364892 -2.66273e-08 -0.000247695)
(0.0378945 -5.41907e-09 -0.000198513)
(0.0397172 5.02987e-08 -8.95647e-05)
(0.0333449 -1.22888e-09 -1.55382e-05)
(0.0333603 -2.14177e-09 -3.4339e-05)
(0.0333942 -3.77345e-09 -6.02865e-05)
(0.0334616 -6.04005e-09 -9.62369e-05)
(0.0335855 -1.15342e-08 -0.000143409)
(0.0337978 -1.60963e-08 -0.000200519)
(0.0341402 -2.2579e-08 -0.000263126)
(0.0346624 -2.76713e-08 -0.000323444)
(0.0354203 -3.09432e-08 -0.000370709)
(0.0364734 -2.83507e-08 -0.000391821)
(0.0378825 -1.48932e-08 -0.000371498)
(0.0397103 1.9237e-08 -0.000291815)
(0.0420233 9.99636e-08 -0.000129735)
(0.0333393 -8.35814e-10 -1.6546e-05)
(0.0333523 -1.17587e-09 -3.80472e-05)
(0.0333824 -2.17764e-09 -6.92597e-05)
(0.0334449 -4.91396e-09 -0.000114233)
(0.0335635 -9.17575e-09 -0.000175334)
(0.033771 -1.30561e-08 -0.000252016)
(0.0341097 -1.86002e-08 -0.000339912)