/*--------------------------------*- C++ -*----------------------------------*\
  =========                 |
  \\      /  F ield         | OpenFOAM: The Open Source CFD Toolbox
   \\    /   O peration     | Website:  https://openfoam.org
    \\  /    A nd           | Version:  7
     \\/     M anipulation  |
\*---------------------------------------------------------------------------*/
FoamFile
{
    version     2.0;
    format      ascii;
    class       volScalarField;
    location    "100";
    object      p;
}
// * * * * * * * * * * * * * * * * * * * * * * * * * * * * * * * * * * * * * //

dimensions      [0 2 -2 0 0 0 0];

internalField   nonuniform List<scalar> 
43305
(
0.528498
0.460158
2.23462
0.118427
0.266838
0.416162
2.22868
0.0902382
0.211248
3.2243
1.62328
0.0550483
0.0951696
0.137248
0.390029
2.22175
0.0676475
0.176509
3.22278
1.61718
0.0426452
0.0802269
0.0996807
2.57141
1.16832
0.0465856
0.0564988
0.0451036
0.107364
0.375002
2.21458
0.0546477
0.156754
3.21998
1.61056
0.0329064
0.0661275
0.0763301
2.56944
1.16417
0.0448583
0.0532013
0.0360783
0.0785401
3.66726
2.0175
0.911718
0.0275638
0.0400891
0.0285351
0.0377242
0.0855295
0.365879
2.20817
0.0472395
0.146178
3.2168
1.60354
0.024385
0.0563416
0.0634672
2.56648
1.15952
0.0435416
0.0496254
0.0271344
0.0612025
3.66676
2.01617
0.908557
0.0275791
0.0410145
0.0268071
0.0313472
0.0619298
4.70292
3.06871
1.62832
0.739623
0.0183392
0.0246166
0.0223496
0.0254946
0.0296859
0.0727892
0.359922
2.20275
0.042966
0.139904
3.21363
1.59716
0.0174041
0.0498944
0.0570447
2.56312
1.15454
0.0412442
0.0447564
0.0209168
0.0518655
3.66591
2.01406
0.905067
0.0274419
0.0417876
0.0244708
0.0250717
0.0480228
4.70283
3.06833
1.62727
0.737121
0.0183354
0.0254858
0.0230643
0.0243818
0.0247291
0.0527057
5.76622
4.12305
2.56545
1.34319
0.623192
0.0141852
0.0171986
0.0172466
0.0198695
0.0200699
0.0262395
0.0631265
0.355735
2.19833
0.0404398
0.135648
3.21069
1.59163
0.012183
0.0455616
0.0535216
2.55978
1.14998
0.0383021
0.0397911
0.0169791
0.0472561
3.66471
2.01161
0.901323
0.0270559
0.0412201
0.0213705
0.0207046
0.0407187
4.70258
3.06766
1.62565
0.734399
0.0182253
0.0261836
0.0234027
0.0228481
0.0198678
0.0410079
5.76618
4.12298
2.56512
1.34237
0.621098
0.0142138
0.0176755
0.0179588
0.0203924
0.0192543
0.0221597
0.0456279
6.84452
5.22801
3.56938
2.15939
1.13764
0.53851
0.0123016
0.0139619
0.0146783
0.0157007
0.015612
0.0183161
0.0232231
0.0564044
0.35263
2.19478
0.0388742
0.132447
3.20804
1.58702
0.00843851
0.0425183
0.0512575
2.55666
1.146
0.035256
0.0354702
0.0144707
0.0446626
3.66325
2.00914
0.897872
0.0265182
0.0396095
0.0183617
0.017898
0.0372322
4.7022
3.06669
1.62376
0.731514
0.0179152
0.0264535
0.0229679
0.0206817
0.0165683
0.0349475
5.76609
4.12278
2.56457
1.3411
0.618843
0.0141879
0.0180367
0.0185416
0.0206443
0.018095
0.0181671
0.0355125
6.84451
5.22797
3.56931
2.15914
1.13696
0.536706
0.0123347
0.0142717
0.0151212
0.0161994
0.0160059
0.0176722
0.0197543
0.0408491
6.35529
4.66518
3.07744
1.84594
0.985106
0.476184
0.0115383
0.0125463
0.0130309
0.0137729
0.0127668
0.0144843
0.0164965
0.0213722
0.0513852
0.350242
2.19194
0.0378535
0.129928
3.20573
1.58325
0.00576265
0.0402747
0.0495809
2.55385
1.14267
0.0324008
0.0319703
0.0127996
0.042912
3.66163
2.00679
0.894828
0.0258749
0.037462
0.0158316
0.0160377
0.0353223
4.70167
3.0655
1.62183
0.728883
0.0174813
0.0263627
0.0220474
0.0184948
0.014519
0.0321046
5.76593
4.12245
2.56377
1.33965
0.616466
0.0140348
0.0181272
0.0188489
0.0203099
0.0164897
0.0154763
0.0303212
6.84448
5.22789
3.56913
2.15871
1.13591
0.534776
0.0123169
0.014541
0.0155471
0.0166214
0.0161707
0.0167398
0.0163595
0.0319054
6.35528
4.66514
3.07738
1.84573
0.984514
0.474592
0.0115735
0.0127601
0.0133215
0.0140913
0.013129
0.0148012
0.015968
0.0183457
0.0372924
7.51059
5.81249
4.121
2.66751
1.60568
0.87137
0.429799
0.0112025
0.0119805
0.0121446
0.0125916
0.0117517
0.0120998
0.0131763
0.0155156
0.0199424
0.0478263
0.348363
2.18967
0.0371545
0.127912
3.20373
1.58019
0.00381692
0.0385663
0.0482433
2.55137
1.13993
0.0298834
0.0292217
0.0116125
0.041555
3.65994
2.00465
0.892236
0.0251552
0.0351647
0.0138283
0.0147227
0.0340552
4.70102
3.06414
1.61998
0.726585
0.0169918
0.0259593
0.0208847
0.0165822
0.0132066
0.0305595
5.76571
4.12199
2.56278
1.33818
0.614313
0.0137751
0.0180174
0.0189373
0.0196087
0.0149016
0.0138215
0.0279196
6.84442
5.22774
3.56884
2.15809
1.13471
0.53275
0.0122131
0.0146462
0.0158429
0.0168261
0.0159167
0.0154427
0.0140827
0.0273434
6.35525
4.66506
3.07724
1.84538
0.983616
0.472894
0.0115586
0.0129696
0.0136256
0.0144136
0.013418
0.0149294
0.0151836
0.0153823
0.0292219
7.51059
5.81248
4.12097
2.66746
1.60551
0.870848
0.428364
0.011239
0.0121423
0.012352
0.0128098
0.0119815
0.0123836
0.0134447
0.0150681
0.017239
0.0348214
7.00177
5.25144
3.63234
2.33822
1.42316
0.786363
0.39574
0.0117168
0.0108684
0.0117711
0.0119635
0.0111929
0.0112228
0.0111892
0.0125762
0.0147206
0.0190099
0.0453015
0.346859
2.18785
0.0366528
0.126291
3.20201
1.57773
0.00236498
0.0372402
0.0471392
2.54922
1.1377
0.027758
0.0270819
0.0107183
0.0404334
3.65826
2.00272
0.890064
0.0243965
0.0329771
0.012279
0.0137266
0.0330885
4.70027
3.06271
1.61825
0.724643
0.0164872
0.0253164
0.0196401
0.0149976
0.0123097
0.0295277
5.76541
4.12142
2.56165
1.33678
0.612439
0.0134502
0.0177577
0.0188118
0.0187187
0.0135393
0.012767
0.0266304
6.84434
5.22754
3.56844
2.15732
1.13352
0.530926
0.0120378
0.014603
0.0160222
0.0168632
0.0154215
0.0141614
0.0126965
0.025249
6.3552
4.66493
3.07701
1.84488
0.982603
0.471117
0.0114757
0.0130905
0.0138665
0.0146498
0.0135431
0.0147186
0.014093
0.0133976
0.025124
7.51057
5.81245
4.1209
2.66734
1.60521
0.870058
0.426838
0.0112303
0.0123229
0.0125756
0.0130498
0.0122038
0.0126096
0.0135485
0.0143895
0.0145905
0.027396
7.00176
5.25143
3.63231
2.33818
1.42301
0.785892
0.39442
0.0118576
0.010907
0.0119346
0.0121276
0.0113523
0.0113998
0.0114244
0.0128121
0.0143304
0.0165417
0.0330853
8.2165
6.44951
4.71276
3.21785
2.08081
1.28554
0.723695
0.371233
0.0116023
0.0113551
0.0101189
0.0116758
0.0109134
0.0107278
0.0104911
0.0108572
0.0120678
0.0142501
0.0183664
0.0436094
0.345639
2.18636
0.036276
0.124979
3.20055
1.57574
0.0012536
0.0361966
0.046213
2.54739
1.13589
0.0260098
0.0254092
0.0100123
0.0394782
3.65666
2.00104
0.888259
0.0236375
0.0310417
0.0110792
0.0129301
0.032305
4.69944
3.06126
1.61668
0.723025
0.0159916
0.0245327
0.0184295
0.0137102
0.0116532
0.0287299
5.76505
4.12075
2.56044
1.33548
0.61086
0.0130957
0.0173846
0.018489
0.0177467
0.0124326
0.0120437
0.0257767
6.84422
5.22726
3.56793
2.15645
1.13238
0.529347
0.0118161
0.0144446
0.0160764
0.0167484
0.0148159
0.0130618
0.011824
0.0241293
6.35512
4.66474
3.07669
1.84425
0.981597
0.46952
0.0113417
0.0131129
0.0140417
0.0148124
0.0135514
0.0143156
0.0130224
0.0121932
0.0232533
7.51055
5.8124
4.12079
2.66715
1.60479
0.86917
0.425243
0.0111693
0.0124682
0.0127654
0.0132556
0.0123586
0.0126975
0.0133702
0.0134416
0.0128187
0.0236381
7.00175
5.25141
3.63225
2.33808
1.42275
0.785182
0.393019
0.0120395
0.0109133
0.012124
0.012314
0.0115216
0.0115718
0.0116094
0.0129019
0.0137276
0.0141226
0.0261252
8.2165
6.44951
4.71275
3.21783
2.08078
1.28541
0.723261
0.369996
0.0117519
0.0114499
0.0101462
0.0118116
0.0110367
0.0108495
0.010635
0.0110612
0.0122802
0.0139004
0.0160659
0.0319462
7.68903
5.88945
4.22929
2.88161
1.88365
1.18352
0.678517
0.354191
0.0115296
0.0113324
0.010377
0.00983362
0.0107827
0.0104816
0.0101163
0.0102477
0.0105496
0.0118088
0.0139364
0.0179811
0.0425478
0.344636
2.18515
0.0359792
0.12391
3.1993
1.57414
0.000383291
0.0353644
0.0454276
2.54584
1.13441
0.0245877
0.0240899
0.00943355
0.0386507
3.65517
1.99957
0.88676
0.0229107
0.0294056
0.0101328
0.0122666
0.0316501
4.69857
3.05986
1.61528
0.721687
0.0155153
0.023699
0.0173264
0.0126633
0.0111454
0.0280741
5.76462
4.11999
2.55921
1.3343
0.609545
0.0127359
0.0169376
0.01802
0.0167709
0.0115513
0.0115079
0.0251207
6.84407
5.22691
3.56733
2.15551
1.13133
0.528023
0.0115725
0.0142007
0.0159927
0.016488
0.0141712
0.0121642
0.011234
0.0233879
6.35501
4.66448
3.07628
1.84354
0.980647
0.468141
0.0111732
0.0130453
0.0141436
0.014898
0.0134676
0.0138262
0.0121104
0.0114368
0.0222568
7.51051
5.81233
4.12062
2.66689
1.60426
0.868292
0.423812
0.0110699
0.0125588
0.0129171
0.0134286
0.0124593
0.0126843
0.0130378
0.0125121
0.0117461
0.0219292
7.00173
5.25136
3.63215
2.33792
1.42238
0.784385
0.391557
0.0122271
0.0108764
0.0123069
0.0124841
0.011665
0.011685
0.0116789
0.0127456
0.0128829
0.012505
0.0226112
8.21649
6.44949
4.71273
3.21778
2.0807
1.28518
0.722609
0.368686
0.0119494
0.0115784
0.0101435
0.0119742
0.0111724
0.0109787
0.010774
0.0112217
0.0123597
0.0133525
0.0138105
0.025311
7.68903
5.88944
4.22928
2.88159
1.88362
1.1834
0.67811
0.353012
0.0116554
0.0114394
0.0104408
0.00985433
0.0108877
0.0105766
0.0102134
0.0103716
0.0107316
0.0120042
0.0136149
0.0157968
0.031256
7.13146
5.3598
3.81981
2.61808
1.73614
1.10975
0.647016
0.342831
0.0107182
0.0112927
0.0104621
0.00996622
0.00964247
0.0103608
0.00994219
0.00992192
0.0100143
0.0104341
0.0116474
0.0137808
0.0177909
0.0419671
0.343801
2.18415
0.0357327
0.123029
3.19825
1.57283
-0.000313421
0.03469
0.0447557
2.54453
1.1332
0.0234312
0.0230375
0.00894534
0.037926
3.65382
1.99832
0.885511
0.0222386
0.0280557
0.00936764
0.0116959
0.0310887
4.69768
3.05855
1.61403
0.72058
0.0150602
0.0228835
0.0163624
0.0117989
0.0107335
0.0275193
5.76413
4.1192
2.55801
1.33324
0.608455
0.0123824
0.0164529
0.0174676
0.0158471
0.0108491
0.0110862
0.0245849
6.84387
5.2265
3.56666
2.15455
1.13038
0.526927
0.0113239
0.0138983
0.0157808
0.0161071
0.0135344
0.0114428
0.0108036
0.0228174
6.35486
4.66416
3.0758
1.84278
0.979775
0.466987
0.0109851
0.0129044
0.0141582
0.0148888
0.0133025
0.0133052
0.0113721
0.0109258
0.021598
7.51046
5.81222
4.12041
2.66655
1.60367
0.867465
0.422578
0.010941
0.0125777
0.013023
0.0135646
0.0125121
0.0125939
0.0126399
0.0117207
0.0110742
0.0210205
7.00169
5.25129
3.63201
2.33771
1.42193
0.783599
0.390246
0.0123924
0.0108039
0.0124741
0.012637
0.0117861
0.0117468
0.0116646
0.012457
0.0120557
0.0115271
0.0210177
8.21648
6.44947
4.71268
3.2177
2.08056
1.28485
0.721878
0.367318
0.012171
0.0117115
0.0101012
0.0121357
0.0112949
0.0110836
0.0108648
0.01128
0.0122197
0.0125823
0.0123029
0.0219666
7.68902
5.88943
4.22926
2.88155
1.88355
1.18319
0.677499
0.351764
0.0118194
0.0115854
0.0105019
0.00985967
0.0110066
0.0106804
0.0103161
0.0104916
0.0108745
0.0120769
0.0131058
0.0136549
0.0248379
7.13146
5.35979
3.8198
2.61806
1.73611
1.10964
0.646628
0.341691
0.0108153
0.011388
0.0105397
0.0100123
0.00965568
0.0104434
0.0100173
0.0100044
0.0101243
0.0106005
0.0118306
0.0134786
0.015684
0.0309114
6.58037
4.89079
3.48916
2.41811
1.62891
1.05819
0.625943
0.335674
0.010301
0.0106273
0.0106479
0.010074
0.00969512
0.00974445
0.00986029
0.00977384
0.00973401
0.00994848
0.0103737
0.0115975
0.0137461
0.0177613
0.0418049
0.343094
2.18331
0.0355162
0.122292
3.19736
1.57175
-0.000884271
0.0341326
0.0441751
2.54343
1.13219
0.0224841
0.0221865
0.00852374
0.0372867
3.65262
1.99724
0.884464
0.0216322
0.0269512
0.0087344
0.0111934
0.0305959
4.69682
3.05736
1.61295
0.719657
0.0146264
0.0221286
0.0155384
0.0110705
0.0103832
0.0270392
5.7636
4.11838
2.55687
1.33231
0.607549
0.0120368
0.0159582
0.0168868
0.015006
0.0102795
0.0107376
0.0241341
6.84364
5.22604
3.56595
2.15361
1.12952
0.526025
0.0110772
0.0135597
0.0154685
0.0156436
0.0129366
0.0108604
0.01047
0.0223506
6.35467
4.66378
3.07526
1.842
0.978987
0.466034
0.0107882
0.0127084
0.0140781
0.0147752
0.0130704
0.0127884
0.010784
0.0105531
0.021092
7.51039
5.81207
4.12013
2.66616
1.60304
0.866709
0.421547
0.0107895
0.0125186
0.0130703
0.0136473
0.0125118
0.0124386
0.0122209
0.0110801
0.0106216
0.0204198
7.00164
5.25119
3.63183
2.33743
1.42142
0.782861
0.389116
0.0124944
0.0107021
0.0126048
0.0127671
0.0118854
0.0117634
0.0115886
0.0121131
0.0113525
0.0109149
0.0201716
8.21647
6.44944
4.71262
3.21758
2.08037
1.28445
0.721159
0.366094
0.0123941
0.0118277
0.0100257
0.0122911
0.0114055
0.0111646
0.0109122
0.0112637
0.0119635
0.0118283
0.0113922
0.0204528
7.68901
5.88941
4.22922
2.88148
1.88343
1.18289
0.676815
0.350462
0.0119987
0.0117503
0.0105417
0.0098393
0.0111193
0.0107701
0.0103993
0.0105693
0.0109255
0.0119488
0.0123886
0.0122234
0.0216061
7.13145
5.35978
3.81978
2.61803
1.73605
1.10944
0.646046
0.340485
0.01093
0.0115154
0.0106208
0.0100582
0.00966184
0.0105349
0.010099
0.0100921
0.0102309
0.0107312
0.0118983
0.0129963
0.0136177
0.0246299
6.58037
4.89078
3.48915
2.41809
1.62889
1.05808
0.625568
0.334558
0.0103779
0.0107069
0.0107209
0.0101324
0.00972522
0.00975259
0.00992533
0.00983661
0.00980663
0.0100489
0.0105291
0.0117723
0.0134566
0.0157033
0.0308868
7.85691
6.07173
4.49895
3.23328
2.27151
1.5537
1.02362
0.612563
0.331555
0.00982218
0.0102256
0.0103625
0.0102524
0.00979283
0.0097602
0.0100312
0.0097036
0.0096131
0.00969502
0.00992237
0.0103917
0.0116322
0.0138195
0.0179254
0.0419388
0.342487
2.1826
0.0353154
0.121666
3.19659
1.57086
-0.00136403
0.0336608
0.0436676
2.54251
1.13135
0.0216992
0.0214867
0.00815198
0.0367195
3.65157
1.99633
0.883578
0.0210928
0.026045
0.00819918
0.0107438
0.030154
4.69598
3.05628
1.612
0.718878
0.0142147
0.0214537
0.0148389
0.0104447
0.0100719
0.0266143
5.76305
4.11757
2.55581
1.33148
0.60679
0.0116972
0.0154732
0.016318
0.0142573
0.00980369
0.010436
0.0237457
6.84336
5.22553
3.56521
2.1527
1.12876
0.525279
0.0108315
0.0132013
0.0150901
0.0151373
0.0123934
0.0103809
0.0101977
0.021957
6.35444
4.66335
3.07467
1.84123
0.978285
0.46525
0.0105875
0.0124731
0.0139083
0.0145635
0.0127896
0.0122994
0.0103137
0.010264
0.020679
7.51029
5.81189
4.11981
2.66571
1.6024
0.866028
0.420697
0.0106214
0.0123874
0.0130472
0.0136582
0.0124526
0.0122321
0.0118087
0.0105693
0.0102929
0.0199583
7.00157
5.25106
3.6316
2.3371
1.42087
0.782188
0.388174
0.0125017
0.0105772
0.012675
0.0128613
0.0119556
0.0117348
0.0114626
0.0117517
0.0107841
0.0105027
0.0196124
8.21644
6.44939
4.71253
3.21743
2.08014
1.28399
0.720484
0.365038
0.0125751
0.0118996
0.00992616
0.0124253
0.0115027
0.0112224
0.0109212
0.011193
0.0116599
0.0111876
0.0108225
0.0196497
7.689
5.88938
4.22917
2.88138
1.88327
1.18252
0.676143
0.349297
0.012179
0.0119155
0.0105588
0.00979422
0.0112247
0.0108457
0.0104621
0.0106077
0.0109095
0.0117155
0.0116867
0.011359
0.0201448
7.13144
5.35976
3.81975
2.61797
1.73594
1.10916
0.645395
0.339227
0.0110449
0.0116554
0.0106909
0.0100885
0.00965463
0.0106164
0.0101696
0.0101628
0.0103
0.0107773
0.0117788
0.0123157
0.0122366
0.021468
6.58036
4.89077
3.48914
2.41806
1.62882
1.0579
0.625005
0.333379
0.0104643
0.0108037
0.0108065
0.0101964
0.00975524
0.00975798
0.00999687
0.00990564
0.00988382
0.0101464
0.010651
0.0118367
0.0129922
0.0136849
0.0246819
7.8569
6.07173
4.49895
3.23327
2.27149
1.55368
1.02351
0.612195
0.330454
0.00988261
0.0102909
0.0104252
0.0103084
0.00983256
0.00977923
0.010036
0.00975729
0.00966768
0.00976103
0.010016
0.0105395
0.0118014
0.0135382
0.0158961
0.0310851
7.32988
5.6317
4.18824
3.04333
2.16814
1.50314
1.00158
0.60466
0.329518
0.00966931
0.00977944
0.010081
0.0101709
0.00994115
0.0098236
0.0100343
0.0104609
0.00955759
0.00958718
0.00968625
0.0099602
0.0104682
0.0117466
0.0140522
0.0182343
0.0426843
0.341956
2.18199
0.03512
0.121124
3.19594
1.57011
-0.0017785
0.0332509
0.0432175
2.54173
1.13064
0.021039
0.0208999
0.00781735
0.0362131
3.65066
1.99554
0.882821
0.0206149
0.0252937
0.00773777
0.0103366
0.0297505
4.6952
3.05533
1.61118
0.718211
0.0138263
0.0208611
0.0142429
0.00989837
0.00978462
0.0262303
5.76248
4.11679
2.55485
1.33075
0.606144
0.0113622
0.0150113
0.0157856
0.0135973
0.00939315
0.0101639
0.0234027
6.84306
5.22499
3.56447
2.15186
1.12809
0.524657
0.0105829
0.0128355
0.0146781
0.0146214
0.0119071
0.00997461
0.009964
0.0216166
6.35417
4.66287
3.07406
1.8405
0.977663
0.464602
0.0103833
0.0122113
0.0136647
0.0142729
0.0124788
0.0118498
0.00993005
0.0100272
0.0203316
7.51017
5.81167
4.11944
2.66523
1.60177
0.865423
0.42
0.0104421
0.0121994
0.0129493
0.0135863
0.0123334
0.0119894
0.0114213
0.0101602
0.0100391
0.0195819
7.00147
5.2509
3.63133
2.33674
1.42032
0.781584
0.387397
0.0124089
0.010436
0.012668
0.0129023
0.0119849
0.0116608
0.0112985
0.0113962
0.0103319
0.0102035
0.0191832
8.21641
6.44932
4.71242
3.21724
2.07986
1.28351
0.71987
0.364158
0.012672
0.0119049
0.00981394
0.0125182
0.0115799
0.0112538
0.0108932
0.011079
0.0113419
0.0106697
0.0104392
0.0191188
7.68897
5.88933
4.22909
2.88125
1.88306
1.1821
0.675514
0.348293
0.0123312
0.0120511
0.0105533
0.00972725
0.0113163
0.0109061
0.0105039
0.0106109
0.0108454
0.0114398
0.0110905
0.0108183
0.0193696
7.13143
5.35973
3.8197
2.61788
1.73579
1.10882
0.644756
0.338101
0.0111551
0.0117957
0.0107498
0.0101011
0.00963325
0.0106874
0.0102281
0.010215
0.0103338
0.0107616
0.011562
0.0116497
0.0114025
0.0200387
6.58035
4.89076
3.48911
2.418
1.62872
1.05763
0.624376
0.332149
0.0105437
0.0109023
0.0108912
0.0102522
0.00977655
0.00975649
0.0100607
0.00996559
0.00994636
0.0102097
0.0106937
0.0117232
0.0123358
0.0123351
0.0215569
7.8569
6.07172
4.49894
3.23326
2.27146
1.55362
1.02333
0.611644
0.329289
0.00994985
0.0103665
0.0104998
0.010375
0.00987693
0.00979845
0.01004
0.00981731
0.00972788
0.00983136
0.0101069
0.0106554
0.0118637
0.0130852
0.0139055
0.0249096
7.32988
5.63169
4.18824
3.04333
2.16812
1.50311
1.00148
0.604297
0.328425
0.00971889
0.00983164
0.0101338
0.0102189
0.00998156
0.00984959
0.0100459
0.0104636
0.00960366
0.00963649
0.00974761
0.0100492
0.0106111
0.0119126
0.0137761
0.0162181
0.0318284
6.85902
5.27325
3.95377
2.90834
2.09838
1.4708
0.988408
0.60045
0.329137
0.00953071
0.00962814
0.00969854
0.00998787
0.00999159
0.00991712
0.010068
0.0104611
0.01094
0.00953758
0.00958579
0.00973089
0.010043
0.0106018
0.0119922
0.014407
0.019054
0.0438632
0.341483
2.18146
0.0349222
0.120645
3.19537
1.56946
-0.00214707
0.0328848
0.0428117
2.54106
1.13002
0.0204737
0.020397
0.00750968
0.0357574
3.64986
1.99487
0.882169
0.0201892
0.0246615
0.00733199
0.00996397
0.0293767
4.69448
3.05449
1.61046
0.717632
0.0134619
0.020343
0.0137294
0.0094151
0.00951192
0.0258765
5.76192
4.11605
2.55399
1.33011
0.605586
0.0110324
0.0145793
0.0153
0.0130159
0.00902755
0.00990968
0.0230921
6.84272
5.22444
3.56375
2.15109
1.12749
0.524128
0.0103284
0.0124709
0.0142587
0.0141201
0.0114719
0.00961942
0.00975338
0.0213147
6.35387
4.66237
3.07345
1.83981
0.977114
0.464062
0.0101739
0.0119334
0.0133689
0.0139285
0.0121541
0.0114421
0.00960727
0.00982299
0.0200318
7.51003
5.81141
4.11903
2.66473
1.60116
0.864887
0.419425
0.0102551
0.0119735
0.0127829
0.0134328
0.0121599
0.0117241
0.0110669
0.00982562
0.0098324
0.0192654
7.00136
5.2507
3.63101
2.33634
1.41978
0.781048
0.38676
0.0122352
0.0102841
0.0125811
0.0128762
0.0119618
0.0115433
0.0111083
0.0110615
0.00997063
0.0099727
0.0188335
8.21636
6.44923
4.71228
3.21701
2.07954
1.28301
0.719319
0.363434
0.0126643
0.0118364
0.00969987
0.0125516
0.0116264
0.0112532
0.0108298
0.0109326
0.0110297
0.0102576
0.0101613
0.0187113
7.68894
5.88927
4.22899
2.88108
1.88281
1.18166
0.674941
0.347456
0.0124238
0.0121273
0.0105259
0.00964348
0.0113838
0.010948
0.0105223
0.0105806
0.0107435
0.0111513
0.0106088
0.0104544
0.018857
7.13141
5.35969
3.81964
2.61776
1.7356
1.10843
0.644157
0.337132
0.011247
0.0119156
0.0107974
0.0100947
0.00959764
0.0107443
0.0102729
0.0102473
0.010336
0.0107018
0.0113063
0.0110841
0.0108804
0.0192801
6.58034
4.89073
3.48907
2.41793
1.62858
1.0573
0.623758
0.331047
0.0106142
0.010997
0.0109749
0.0102982
0.00978802
0.00974687
0.010116
0.010015
0.00999248
0.0102405
0.0106785
0.0115177
0.0116935
0.0115193
0.0201423
7.8569
6.07171
4.49892
3.23323
2.27141
1.55353
1.02307
0.611029
0.328074
0.0100115
0.0104373
0.0105766
0.0104407
0.00991748
0.0098125
0.0100409
0.00987175
0.00978068
0.00988846
0.0101661
0.0106959
0.0117543
0.012444
0.0125722
0.021796
7.32987
5.63169
4.18823
3.04331
2.1681
1.50306
1.0013
0.603752
0.327267
0.00977512
0.00989127
0.0101952
0.0102773
0.0100294
0.00987899
0.010058
0.0104662
0.00965556
0.00969109
0.00981305
0.0101358
0.0107232
0.0119738
0.0133303
0.0142394
0.0256413
6.85902
5.27325
3.95377
2.90833
2.09837
1.47077
0.988305
0.600089
0.328046
0.0095729
0.00967064
0.00974205
0.0100291
0.0100271
0.00994533
0.0100844
0.0104679
0.0109414
0.00957893
0.00963151
0.00978925
0.0101291
0.0107419
0.0121571
0.014134
0.0170344
0.0330128
6.46507
4.99744
3.78532
2.81676
2.05362
1.45132
0.981168
0.598768
0.329613
0.00951321
0.00949896
0.00954643
0.00967661
0.00991776
0.00998191
0.0101244
0.0104771
0.010941
0.0113818
0.00953915
0.00963085
0.00980987
0.0101672
0.0108311
0.0123226
0.0152328
0.0201556
0.0498979
0.341054
2.18099
0.0347163
0.120214
3.19487
1.56891
-0.00248455
0.0325486
0.042439
2.54048
1.12949
0.0199803
0.0199558
0.00722046
0.0353427
3.64917
1.99428
0.8816
0.0198058
0.0241195
0.00696758
0.00961905
0.029026
4.69382
3.05376
1.60984
0.717121
0.0131202
0.0198875
0.0132802
0.00898228
0.00924791
0.025545
5.76137
4.11536
2.55323
1.32954
0.605096
0.0107097
0.0141793
0.0148618
0.0125013
0.00869297
0.00966537
0.0228042
6.84237
5.22389
3.56307
2.15039
1.12696
0.523672
0.0100678
0.0121138
0.0138498
0.0136476
0.0110785
0.00929922
0.0095552
0.0210399
6.35354
4.66185
3.07284
1.83917
0.976626
0.463603
0.00995735
0.0116471
0.0130428
0.0135553
0.0118277
0.0110721
0.00932584
0.00963767
0.0197661
7.50986
5.81112
4.11859
2.66421
1.60059
0.864414
0.418947
0.0100617
0.0117274
0.0125629
0.0132104
0.0119424
0.0114477
0.0107463
0.00954302
0.00965469
0.0189922
7.00122
5.25047
3.63066
2.33592
1.41926
0.780575
0.386236
0.0120116
0.0101248
0.012426
0.0127784
0.0118807
0.0113869
0.0109023
0.0107544
0.009676
0.00978485
0.0185398
8.21631
6.44912
4.7121
3.21674
2.0792
1.28253
0.71883
0.36284
0.0125591
0.0117031
0.00959002
0.0125156
0.0116302
0.0112151
0.010734
0.0107641
0.0107365
0.00992834
0.00994741
0.0183794
7.6889
5.88919
4.22887
2.88089
1.88254
1.18122
0.674428
0.346767
0.0124373
0.012127
0.0104779
0.00955001
0.0114164
0.010966
0.0105145
0.0105189
0.0106137
0.0108683
0.0102256
0.0101905
0.0184635
7.13137
5.35963
3.81955
2.61762
1.73538
1.10802
0.643613
0.336323
0.0113048
0.0119916
0.010832
0.0100684
0.00954895
0.0107818
0.0103008
0.0102575
0.0103082
0.0106077
0.0110391
0.0106269
0.0105288
0.0187781
6.58031
4.89069
3.48901
2.41782
1.62841
1.05693
0.623179
0.330098
0.010669
0.0110774
0.0110556
0.0103323
0.00978835
0.00972807
0.0101597
0.0100517
0.0100207
0.010242
0.0106222
0.0112758
0.0111478
0.011008
0.0193896
7.85689
6.0717
4.4989
3.2332
2.27134
1.55339
1.02276
0.610424
0.326985
0.0100665
0.0105004
0.0106558
0.0105047
0.00995339
0.00982052
0.0100379
0.00991963
0.00982463
0.00993054
0.0101949
0.0106811
0.0115565
0.0118163
0.0117638
0.0203846
7.32987
5.63168
4.18822
3.04329
2.16805
1.50296
1.00105
0.603143
0.326059
0.00982794
0.00994696
0.0102551
0.0103385
0.0100772
0.0099062
0.0100676
0.0104676
0.00970348
0.00973922
0.00986631
0.0101922
0.0107622
0.0118672
0.012697
0.0129109
0.0225176
6.85902
5.27324
3.95376
2.90832
2.09834
1.47072
0.98813
0.599547
0.32689
0.00962126
0.00972003
0.00979135
0.0100784
0.0100707
0.00997878
0.0101033
0.0104753
0.0109429
0.00962579
0.0096822
0.0098515
0.010213
0.0108518
0.0122183
0.0136912
0.0150527
0.0268418
6.46506
4.99744
3.78531
2.81676
2.05361
1.4513
0.981065
0.598407
0.328528
0.0095509
0.00953482
0.00958244
0.00971202
0.00994901
0.0100081
0.0101432
0.0104871
0.0109445
0.0113823
0.00957738
0.00967437
0.00986647
0.0102519
0.0109704
0.0124879
0.0149574
0.0181206
0.039852
6.15564
4.79661
3.67023
2.75777
2.02653
1.44042
0.977725
0.598444
0.331523
0.0095161
0.00948404
0.0094298
0.0095163
0.00969356
0.00995658
0.0101641
0.0105104
0.0109501
0.0113846
0.0117218
0.00958307
0.00970345
0.00991853
0.0103542
0.0111008
0.0129885
0.0161228
0.0240712
0.340657
2.18057
0.0344976
0.119817
3.19442
1.56841
-0.00280237
0.0322312
0.0420899
2.53997
1.12902
0.0195405
0.019559
0.00694248
0.0349602
3.64857
1.99377
0.881097
0.0194545
0.0236452
0.00663304
0.00929547
0.0286933
4.69323
3.05312
1.60929
0.716664
0.0127986
0.0194817
0.0128802
0.00858955
0.00898874
0.0252298
5.76084
4.11473
2.55256
1.32904
0.604657
0.0103958
0.0138097
0.014466
0.012042
0.00837992
0.00942572
0.0225314
6.842
5.22335
3.56243
2.14976
1.12648
0.523268
0.00980262
0.0117685
0.0134614
0.0132096
0.0107179
0.00900256
0.00936198
0.0207835
6.35319
4.66133
3.07226
1.83859
0.976191
0.463205
0.00973288
0.0113581
0.0127045
0.0131741
0.0115071
0.0107329
0.00907141
0.00946188
0.019524
7.50967
5.81081
4.11813
2.66371
1.60007
0.863995
0.418541
0.0098616
0.0114732
0.0123071
0.0129382
0.0116938
0.0111684
0.010455
0.00929538
0.00949361
0.0187499
7.00105
5.25021
3.63029
2.3355
1.41877
0.780159
0.385799
0.0117658
0.00995896
0.0122225
0.0126157
0.0117437
0.0111982
0.0106882
0.0104754
0.00942783
0.0096233
0.0182866
8.21623
6.44899
4.7119
3.21645
2.07885
1.28208
0.7184
0.362352
0.0123829
0.011524
0.00948395
0.0124122
0.0115827
0.011136
0.0106099
0.0105825
0.010468
0.00965979
0.00977362
0.0181006
7.68884
5.88909
4.22872
2.88066
1.88224
1.18078
0.673973
0.346203
0.0123708
0.0120505
0.0104089
0.0094536
0.0114055
0.0109536
0.010478
0.0104293
0.0104653
0.0106023
0.00991975
0.00998748
0.0181428
7.13133
5.35956
3.81944
2.61745
1.73513
1.1076
0.643125
0.335657
0.011317
0.0120073
0.0108489
0.0100231
0.00948988
0.0107938
0.0103086
0.0102435
0.0102527
0.0104884
0.0107772
0.0102631
0.0102736
0.0183925
6.58028
4.89064
3.48894
2.41769
1.6282
1.05654
0.622653
0.329307
0.0106999
0.0111306
0.0111283
0.0103516
0.00977617
0.00969944
0.0101874
0.0100726
0.010029
0.0102158
0.0105343
0.0110231
0.0107064
0.010663
0.0188902
7.85688
6.07168
4.49886
3.23315
2.27124
1.55323
1.0224
0.609858
0.326046
0.0101101
0.0105504
0.0107353
0.0105652
0.00998291
0.00982137
0.01003
0.00995795
0.00985754
0.00995614
0.0101964
0.0106273
0.0113237
0.0112825
0.0112549
0.0196333
7.32986
5.63167
4.1882
3.04326
2.16798
1.50284
1.00074
0.602545
0.324975
0.0098763
0.0099967
0.0103134
0.0104024
0.0101248
0.00993067
0.0100742
0.0104673
0.00974653
0.00977946
0.0099057
0.0102198
0.0107479
0.0116745
0.0120758
0.0121026
0.0210989
6.85901
5.27324
3.95375
2.9083
2.0983
1.47063
0.987881
0.598941
0.325683
0.00966772
0.00976705
0.00983791
0.0101283
0.010117
0.0100123
0.0101214
0.0104816
0.0109439
0.0096694
0.00972702
0.00990223
0.0102677
0.0108902
0.0121132
0.0130604
0.0137128
0.0237518
6.46506
4.99744
3.78531
2.81675
2.05358
1.45124
0.980891
0.597865
0.32738
0.00959438
0.00957695
0.00962337
0.00975305
0.00998709
0.0100402
0.0101658
0.0104988
0.0109485
0.0113828
0.00962076
0.00972264
0.00992682
0.0103343
0.0110798
0.0125485
0.0145117
0.0161159
0.0342555
6.15564
4.79661
3.67023
2.75777
2.02651
1.44039
0.977622
0.598085
0.330497
0.00955086
0.00951587
0.00946014
0.00954659
0.00972154
0.00998027
0.0101828
0.0105222
0.0109555
0.0113857
0.0117218
0.0096195
0.0097458
0.00997444
0.010439
0.0112403
0.0131509
0.0158215
0.021873
5.92696
4.65818
3.59574
2.72192
2.01122
1.4349
0.976385
0.59924
0.00955903
0.00948858
0.00941993
0.00940395
0.00952778
0.00979636
0.0101416
0.0105264
0.0109709
0.0113931
0.011727
0.0119455
0.00965058
0.00979894
0.0100666
0.0105515
0.0115512
0.0135827
0.0188999
0.340283
2.18018
0.0342626
0.119444
3.19402
1.56797
-0.00310952
0.0319243
0.0417563
2.53952
1.12859
0.0191397
0.0191932
0.00666954
0.0346017
3.64803
1.99331
0.880647
0.0191264
0.0232209
0.00631888
0.00898716
0.028374
4.69269
3.05256
1.6088
0.716248
0.0124933
0.0191135
0.0125166
0.00822789
0.00873159
0.0249264
5.76035
4.11416
2.55196
1.32858
0.604258
0.0100915
0.0134666
0.0141053
0.0116274
0.00808178
0.00918718
0.0222678
6.84163
5.22284
3.56184
2.14919
1.12604
0.522904
0.0095353
0.011437
0.0130971
0.0128063
0.010382
0.00872132
0.00916849
0.0205387
6.35282
4.66082
3.07171
1.83805
0.975798
0.462852
0.00950104
0.0110701
0.0123671
0.0127994
0.0111961
0.0104174
0.00883348
0.00928894
0.0192973
7.50945
5.81047
4.11767
2.66321
1.59959
0.863619
0.41819
0.00965409
0.011217
0.0120314
0.0126356
0.0114263
0.0108914
0.0101864
0.00907007
0.0093404
0.0185286
7.00086
5.24991
3.6299
2.33508
1.41832
0.77979
0.38543
0.0115157
0.0097857
0.01199
0.0124022
0.0115596
0.0109848
0.0104713
0.0102205
0.00921065
0.00947662
0.0180619
8.21614
6.44884
4.71166
3.21614
2.07849
1.28165
0.718022
0.361946
0.012166
0.0113188
0.00937644
0.0122528
0.0114826
0.011016
0.0104623
0.0103941
0.0102242
0.00943349
0.00962434
0.0178601
7.68877
5.88897
4.22854
2.88041
1.88193
1.18036
0.673574
0.345739
0.0122382
0.0119126
0.0103179
0.00935798
0.011347
0.0109051
0.0104113
0.0103158
0.0103061
0.0103586
0.00967046
0.00982246
0.0178734
7.13128
5.35947
3.81931
2.61725
1.73486
1.10719
0.642693
0.335111
0.0112796
0.0119584
0.01084
0.00996094
0.00942401
0.0107753
0.0102925
0.0102041
0.0101728
0.0103525
0.0105313
0.00997265
0.0100771
0.0180782
6.58025
4.89058
3.48884
2.41754
1.62797
1.05615
0.622182
0.328654
0.0107003
0.0111465
0.0111843
0.0103538
0.00975091
0.00966117
0.0101949
0.0100746
0.0100156
0.0101642
0.0104233
0.0107754
0.010355
0.0104123
0.0185053
7.85686
6.07165
4.49882
3.23308
2.27112
1.55303
1.02202
0.609343
0.325262
0.0101364
0.0105803
0.0108101
0.0106182
0.0100033
0.00981366
0.0100161
0.00998246
0.00987635
0.00996323
0.0101722
0.0105436
0.0110807
0.0108504
0.0109094
0.0191352
7.32985
5.63165
4.18817
3.04321
2.16789
1.50268
1.00039
0.601984
0.324041
0.00991633
0.0100367
0.0103688
0.0104676
0.0101707
0.00995117
0.010077
0.0104647
0.00978196
0.00980971
0.0099298
0.0102214
0.0106959
0.0114477
0.011546
0.0115915
0.0203413
6.859
5.27322
3.95373
2.90827
2.09823
1.4705
0.987575
0.598345
0.324599
0.00971147
0.00981007
0.00988141
0.0101787
0.0101662
0.0100456
0.0101385
0.0104867
0.0109445
0.00970895
0.00976469
0.00993982
0.0102946
0.0108764
0.0119226
0.0124405
0.0128879
0.022368
6.46506
4.99743
3.78529
2.81673
2.05354
1.45115
0.980643
0.597259
0.326183
0.00963653
0.00961803
0.00966181
0.00979293
0.010027
0.0100741
0.0101893
0.0105104
0.0109523
0.0113832
0.00966129
0.00976532
0.00997599
0.0103882
0.0111178
0.0124432
0.0138709
0.0147665
0.0314129
6.15563
4.79661
3.67022
2.75775
2.02649
1.44034
0.977449