/*--------------------------------*- C++ -*----------------------------------*\
  =========                 |
  \\      /  F ield         | OpenFOAM: The Open Source CFD Toolbox
   \\    /   O peration     | Website:  https://openfoam.org
    \\  /    A nd           | Version:  7
     \\/     M anipulation  |
\*---------------------------------------------------------------------------*/
FoamFile
{
    version     2.0;
    format      ascii;
    class       surfaceScalarField;
    location    "100";
    object      phi;
}
// * * * * * * * * * * * * * * * * * * * * * * * * * * * * * * * * * * * * * //

dimensions      [0 3 -1 0 0 0 0];

internalField   nonuniform List<scalar> 
125526
(
5.19903e-11
-2.61377e-10
3.65528e-10
9.12322e-11
3.91578e-11
-2.9912e-10
4.92571e-10
1.00953e-10
6.09146e-12
-1.84598e-10
1.1383e-10
7.06856e-11
2.56759e-10
3.80835e-11
5.55603e-11
-2.72502e-10
2.91604e-10
1.65701e-11
2.25661e-11
-3.36304e-10
5.56844e-10
1.11777e-10
7.62769e-12
-2.06904e-10
1.25868e-10
7.03569e-11
4.30993e-10
6.19068e-11
4.24559e-11
-3.11791e-10
4.08676e-10
1.7173e-11
2.16917e-12
1.31952e-10
7.99382e-12
-2.22027e-10
5.53619e-11
8.14321e-11
1.48253e-10
2.70736e-11
7.29305e-11
2.40286e-10
1.64712e-11
4.80073e-11
-2.66999e-10
2.30934e-10
4.62762e-12
1.22149e-11
-3.74621e-10
6.13187e-10
1.23195e-10
7.11951e-12
-2.31214e-10
1.39391e-10
5.02727e-11
5.03595e-10
7.33324e-11
2.39166e-11
-3.50233e-10
4.62535e-10
1.80131e-11
3.62815e-12
1.462e-10
9.69115e-12
-2.48807e-10
6.11857e-11
1.23325e-10
3.25849e-10
6.32503e-11
8.33672e-11
4.32768e-10
2.73775e-11
3.71146e-11
-3.04544e-10
3.28147e-10
4.46283e-12
3.42119e-12
-1.75678e-10
8.21814e-11
7.05577e-12
-2.45787e-10
2.70944e-11
4.8252e-11
7.55328e-11
2.44685e-11
7.80223e-11
1.65451e-10
2.38856e-11
6.78438e-11
1.73902e-10
5.65979e-12
4.61472e-11
-2.64153e-10
2.20994e-10
1.63904e-12
6.77139e-12
-4.14828e-10
6.73924e-10
1.35434e-10
5.87365e-12
-2.57039e-10
1.54101e-10
3.12804e-11
5.50408e-10
8.17713e-11
1.2503e-11
-3.8976e-10
5.05216e-10
1.91529e-11
3.92756e-12
1.61956e-10
9.10034e-12
-2.77805e-10
6.75538e-11
1.18464e-10
4.24664e-10
8.37924e-11
6.80788e-11
5.18559e-10
3.25972e-11
2.06934e-11
-3.41473e-10
3.71519e-10
4.38793e-12
5.11977e-12
-1.9537e-10
9.10642e-11
8.72598e-12
-2.74881e-10
2.98524e-11
1.06466e-10
2.02641e-10
6.49945e-11
1.37063e-10
3.86481e-10
5.04965e-11
8.34673e-11
3.29355e-10
1.05458e-11
3.50951e-11
-3.01015e-10
3.15011e-10
1.51849e-12
1.13081e-12
-1.40825e-10
1.0821e-10
3.0294e-12
-2.14754e-10
4.81186e-11
6.73635e-12
-2.57475e-10
1.36805e-11
1.9308e-11
3.82553e-11
1.79695e-11
5.21195e-11
1.07046e-10
3.07542e-11
7.07958e-11
1.16165e-10
1.0827e-11
6.45586e-11
1.59916e-10
2.17898e-12
4.6418e-11
-2.65418e-10
2.19788e-10
8.51948e-13
4.006e-12
-4.57464e-10
7.40745e-10
1.48637e-10
4.54244e-12
-2.84524e-10
1.70019e-10
1.84034e-11
5.96866e-10
8.99346e-11
6.84648e-12
-4.31178e-10
5.5169e-10
2.05778e-11
3.6206e-12
1.79093e-10
7.62352e-12
-3.08633e-10
7.44505e-11
9.24961e-11
4.805e-10
9.58765e-11
4.83542e-11
5.70685e-10
3.60274e-11
1.05286e-11
-3.79563e-10
4.04431e-10
4.44972e-12
5.41184e-12
-2.16904e-10
1.00763e-10
8.30081e-12
-3.06396e-10
3.29026e-11
1.36512e-10
2.99401e-10
9.52168e-11
1.49597e-10
5.22978e-10
6.68393e-11
7.31142e-11
4.01544e-10
1.2926e-11
1.92654e-11
-3.37228e-10
3.56013e-10
1.43242e-12
1.89844e-12
-1.56223e-10
1.20023e-10
4.69626e-12
-2.3873e-10
5.32465e-11
8.25863e-12
-2.87779e-10
1.50942e-11
5.8385e-11
1.12065e-10
5.14982e-11
1.29439e-10
2.9818e-10
7.59761e-11
1.35009e-10
2.8977e-10
2.58684e-11
8.10536e-11
3.05075e-10
3.98714e-12
3.49096e-11
-3.02451e-10
3.14692e-10
7.85718e-13
3.12843e-13
-1.14463e-10
1.28956e-10
1.11773e-12
-1.81808e-10
7.41466e-11
2.97356e-12
-2.4014e-10
2.78098e-11
6.55524e-12
-2.6589e-10
7.5963e-12
8.11755e-12
1.99119e-11
1.02258e-11
2.90506e-11
6.84536e-11
2.75113e-11
4.97412e-11
8.01092e-11
1.70684e-11
6.28326e-11
1.03517e-10
4.39329e-12
6.4919e-11
1.55963e-10
1.08473e-12
4.72517e-11
-2.67729e-10
2.20839e-10
4.90054e-13
2.54354e-12
-5.02844e-10
8.13296e-10
1.62861e-10
3.39509e-12
-3.13839e-10
1.87165e-10
1.08131e-11
6.49665e-10
9.86705e-11
4.17753e-12
-4.75139e-10
6.04204e-10
2.22411e-11
3.09516e-12
1.9764e-10
6.00764e-12
-3.41464e-10
8.1921e-11
6.44837e-11
5.20465e-10
1.04413e-10
3.24706e-11
6.18567e-10
3.89417e-11
5.57703e-12
-4.19524e-10
4.40413e-10
4.64142e-12
4.96446e-12
-2.40379e-10
1.11286e-10
7.01221e-12
-3.40018e-10
3.61943e-11
1.36084e-10
3.65553e-10
1.15374e-10
1.32116e-10
6.06529e-10
7.75136e-11
5.56035e-11
4.4385e-10
1.41195e-11
9.82652e-12
-3.74626e-10
3.87106e-10
1.40772e-12
2.42062e-12
-1.73173e-10
1.32925e-10
5.06825e-12
-2.64891e-10
5.8886e-11
7.84474e-12
-3.20552e-10
1.66403e-11
9.3612e-11
1.82168e-10
8.20058e-11
1.83259e-10
4.54234e-10
1.10141e-10
1.57875e-10
4.09446e-10
3.60711e-11
7.32794e-11
3.71777e-10
4.93589e-12
1.88081e-11
-3.38772e-10
3.55562e-10
7.44505e-13
6.67301e-13
-1.2698e-10
1.43069e-10
1.93149e-12
-2.017e-10
8.21796e-11
4.56185e-12
-2.66909e-10
3.07886e-11
7.94699e-12
-2.97132e-10
8.38378e-12
2.85581e-11
6.06916e-11
3.09334e-11
9.19638e-11
2.09231e-10
7.75347e-11
1.30122e-10
2.38098e-10
4.72668e-11
1.26243e-10
2.57086e-10
1.04458e-11
8.1759e-11
2.9977e-10
2.06918e-12
3.53511e-11
-3.05134e-10
3.17375e-10
4.45565e-13
1.58248e-13
-9.51955e-11
1.46795e-10
3.18411e-13
-1.51979e-10
9.88093e-11
1.1849e-12
-2.15483e-10
4.83048e-11
2.86563e-12
-2.5749e-10
1.65445e-11
6.56444e-12
-2.71256e-10
4.55939e-12
3.63221e-12
1.15387e-11
4.741e-12
1.61953e-11
4.39999e-11
1.84842e-11
2.82753e-11
6.01277e-11
1.92176e-11
4.29436e-11
6.96197e-11
8.02241e-12
6.06069e-11
9.75936e-11
2.15564e-12
6.60642e-11
1.55241e-10
6.18274e-13
4.76792e-11
-2.67979e-10
2.20485e-10
3.04936e-13
1.71083e-12
-5.51042e-10
8.91007e-10
1.78085e-10
2.49845e-12
-3.45093e-10
2.05549e-10
6.54752e-12
7.09333e-10
1.08229e-10
2.80333e-12
-5.22011e-10
6.62136e-10
2.41098e-11
2.54225e-12
2.17616e-10
4.57776e-12
-3.76529e-10
8.99845e-11
4.25166e-11
5.59222e-10
1.1241e-10
2.16362e-11
6.71851e-10
4.18584e-11
3.32721e-12
-4.61973e-10
4.81544e-10
4.92007e-12
4.25211e-12
-2.65781e-10
1.2267e-10
5.56021e-12
-3.75908e-10
3.97568e-11
1.17272e-10
4.10829e-10
1.28449e-10
1.03676e-10
6.66339e-10
8.50809e-11
3.96989e-11
4.80474e-10
1.47851e-11
5.3881e-12
-4.13942e-10
4.21583e-10
1.43906e-12
2.68313e-12
-1.91649e-10
1.4694e-10
4.72776e-12
-2.9339e-10
6.49975e-11
6.66183e-12
-3.55554e-10
1.83051e-11
1.12092e-10
2.40729e-10
1.06345e-10
2.00469e-10
5.69375e-10
1.35317e-10
1.48693e-10
4.87901e-10
4.26438e-11
5.84912e-11
4.10539e-10
5.47492e-12
9.39797e-12
-3.76265e-10
3.86346e-10
7.37147e-13
9.74646e-13
-1.40682e-10
1.58473e-10
2.51308e-12
-2.23541e-10
9.09931e-11
4.92456e-12
-2.96083e-10
3.40547e-11
7.45694e-12
-3.30888e-10
9.24564e-12
5.34433e-11
1.04677e-10
5.26064e-11
1.56235e-10
3.49007e-10
1.22961e-10
1.94106e-10
3.82823e-10
7.27812e-11
1.54817e-10
3.6436e-10
1.49153e-11
7.39991e-11
3.6565e-10
2.60744e-12
1.88755e-11
-3.41768e-10
3.58569e-10
4.18842e-13
3.22445e-13
-1.05587e-10
1.62872e-10
7.11345e-13
-1.68606e-10
1.09583e-10
2.01225e-12
-2.39091e-10
5.35344e-11
4.36596e-12
-2.86161e-10
1.83176e-11
7.90287e-12
-3.03125e-10
5.03558e-12
1.32735e-11
3.5818e-11
1.52322e-11
5.80014e-11
1.41388e-10
5.697e-11
9.31693e-11
1.92357e-10
5.83814e-11
1.19301e-10
2.05725e-10
2.2271e-11
1.23034e-10
2.4247e-10
5.31805e-12
8.39245e-11
3.00428e-10
1.15579e-12
3.5563e-11
-3.0547e-10
3.17758e-10
2.74043e-13
5.54215e-14
1.62405e-10
1.78048e-13
-1.27423e-10
1.22061e-10
3.86457e-13
-1.88333e-10
7.12727e-11
1.13055e-12
-2.41263e-10
3.09479e-11
2.86248e-12
-2.67845e-10
1.02711e-11
6.55198e-12
-2.72893e-10
2.9213e-12
1.90511e-12
7.77393e-12
1.85965e-12
8.14779e-12
3.01393e-11
1.04539e-11
1.54554e-11
4.69386e-11
1.6218e-11
2.46303e-11
5.30897e-11
1.11172e-11
4.03505e-11
6.14076e-11
3.8579e-12
5.9983e-11
9.62492e-11
1.16452e-12
6.67921e-11
1.53931e-10
3.80632e-13
4.72579e-11
-2.63892e-10
2.16739e-10
2.00015e-13
1.1989e-12
-6.01974e-10
9.73395e-10
1.94244e-10
1.832e-12
-3.78286e-10
2.25139e-10
4.13679e-12
7.74807e-10
1.18611e-10
1.98593e-12
-5.71863e-10
7.24607e-10
2.61581e-11
2.04305e-12
2.39032e-10
3.42494e-12
-4.13962e-10
9.86529e-11
2.76597e-11
6.02904e-10
1.21286e-10
1.46374e-11
7.32351e-10
4.50126e-11
2.22166e-12
-5.07259e-10
5.27217e-10
5.25752e-12
3.50682e-12
-2.93104e-10
1.34936e-10
4.25797e-12
-4.1429e-10
4.36038e-11
9.2387e-11
4.46086e-10
1.38021e-10
7.60981e-11
7.20482e-10
9.13572e-11
2.7781e-11
5.2009e-10
1.52302e-11
3.40752e-12
-4.55775e-10
4.61172e-10
1.5037e-12
2.72327e-12
-2.11682e-10
1.62106e-10
4.11313e-12
-3.2423e-10
7.16059e-11
5.34301e-12
-3.9297e-10
2.0103e-11
1.12906e-10
2.85856e-10
1.24158e-10
1.88202e-10
6.53355e-10
1.537e-10
1.23921e-10
5.43573e-10
4.67542e-11
4.45584e-11
4.44512e-10
5.78907e-12
5.07936e-12
-4.157e-10
4.20699e-10
7.58345e-13
1.20999e-12
-1.55598e-10
1.75215e-10
2.8352e-12
-2.47335e-10
1.00563e-10
4.62603e-12
-3.2785e-10
3.75921e-11
6.26109e-12
-3.66938e-10
1.01744e-11
7.37064e-11
1.47752e-10
7.27139e-11
1.99188e-10
4.71786e-10
1.60982e-10
2.23912e-10
5.00671e-10
9.27417e-11
1.53601e-10
4.36278e-10
1.8121e-11
5.92717e-11
4.03626e-10
2.92222e-12
9.36025e-12
-3.79562e-10
3.894e-10
4.14205e-13
4.84422e-13
-1.16961e-10
1.80414e-10
1.06441e-12
-1.86792e-10
1.21371e-10
2.6097e-12
-2.64961e-10
5.92737e-11
4.66489e-12
-3.17395e-10
2.02633e-11
7.36423e-12
-3.37538e-10
5.55516e-12
2.68663e-11
6.36556e-11
2.74282e-11
1.11247e-10
2.50816e-10
9.75527e-11
1.66919e-10
3.3477e-10
9.72641e-11
1.87776e-10
3.33397e-10
3.52693e-11
1.5184e-10
3.44058e-10
7.70188e-12
7.65452e-11
3.67108e-10
1.44725e-12
1.88796e-11
-3.42144e-10
3.5899e-10
2.55727e-13
1.2919e-13
1.80194e-10
3.7444e-13
-1.41337e-10
1.35406e-10
8.07523e-13
-2.08959e-10
7.90298e-11
1.92066e-12
-2.67711e-10
3.42943e-11
4.33142e-12
-2.97652e-10
1.13761e-11
7.85073e-12
-3.04961e-10
3.2272e-12
6.65393e-12
2.45282e-11
6.541e-12
3.14956e-11
9.93127e-11
3.39596e-11
5.84362e-11
1.54467e-10
5.18791e-11
8.53578e-11
1.69833e-10
3.35452e-11
1.12332e-10
1.8173e-10
1.10301e-11
1.2349e-10
2.39418e-10
2.82171e-12
8.55054e-11
2.99476e-10
7.24871e-13
3.51829e-11
-3.00852e-10
3.13023e-10
1.77451e-13
6.17039e-14
-1.07677e-10
1.42598e-10
2.25049e-13
-1.62237e-10
9.57399e-11
3.82878e-13
-2.19786e-10
4.94122e-11
1.10917e-12
-2.58052e-10
2.00448e-11
2.84786e-12
-2.72149e-10
6.67931e-12
6.45185e-12
-2.69388e-10
1.96486e-12
9.85159e-13
6.10683e-12
6.81954e-13
3.84851e-12
2.28136e-11
5.33679e-12
8.38176e-12
3.78934e-11
1.11173e-11
1.37486e-11
4.40154e-11
1.15438e-11
2.27771e-11
4.41188e-11
5.629e-12
3.91168e-11
5.90125e-11
1.97778e-12
5.96112e-11
9.4778e-11
7.05951e-13
6.63354e-11
1.50539e-10
2.45505e-13
4.5813e-11
-2.54548e-10
2.08799e-10
1.35589e-13
8.64524e-13
-6.55504e-10
1.06009e-09
2.11273e-10
1.34838e-12
-4.13339e-10
2.45871e-10
2.73019e-12
8.45066e-10
1.29735e-10
1.44211e-12
-6.24592e-10
7.91014e-10
2.83667e-11
1.62168e-12
2.61851e-10
2.54019e-12
-4.53752e-10
1.07912e-10
1.82542e-11
6.52814e-10
1.31398e-10
1.01093e-11
7.99253e-10
4.84932e-11
1.591e-12
-5.5545e-10
5.76599e-10
5.63887e-12
2.82587e-12
-3.22346e-10
1.48097e-10
3.20128e-12
-4.55293e-10
4.77442e-11
6.90433e-11
4.79364e-10
1.46884e-10
5.41217e-11
7.78073e-10
9.75403e-11
1.94966e-11
5.64887e-10
1.56265e-11
2.41054e-12
-5.0044e-10
5.05108e-10
1.58669e-12
2.59642e-12
-2.33282e-10
1.78437e-10
3.44374e-12
-3.5741e-10
7.87245e-11
4.15761e-12
-4.33026e-10
2.20406e-11
1.0159e-10
3.20223e-10
1.3718e-10
1.59709e-10
7.19356e-10
1.6764e-10
9.59447e-11
5.90122e-10
4.93016e-11
3.35861e-11
4.81414e-10
5.96083e-12
3.19556e-12
-4.57686e-10
4.60279e-10
7.95182e-13
1.36462e-12
-1.71767e-10
1.93338e-10
2.92435e-12
-2.73127e-10
1.10914e-10
4.07518e-12
-3.62226e-10
4.14137e-11
4.97357e-12
-4.05487e-10
1.11772e-11
8.41893e-11
1.86083e-10
8.92901e-11
2.13598e-10
5.71955e-10
1.91148e-10
2.21706e-10
5.91753e-10
1.07725e-10
1.3598e-10
4.88591e-10
2.02954e-11
4.55053e-11
4.3714e-10
3.11473e-12
5.06299e-12
-4.19322e-10
4.2395e-10
4.27222e-13
6.33859e-13
-1.29333e-10
1.99484e-10
1.34703e-12
-2.06584e-10
1.34182e-10
2.95233e-12
-2.93133e-10
6.5504e-11
4.33989e-12
-3.51392e-10
2.23713e-11
6.14573e-12
-3.74285e-10
6.11572e-12
4.06797e-11
9.37317e-11
4.02065e-11
1.58522e-10
3.6117e-10
1.36054e-10
2.25336e-10
4.70926e-10
1.3231e-10
2.28483e-10
4.41802e-10
4.6511e-11
1.51713e-10
4.12446e-10
9.42754e-12
6.18908e-11
4.05351e-10
1.62559e-12
9.30809e-12
-3.79963e-10
3.89697e-10
2.52212e-13
2.08783e-13
1.99602e-10
5.71346e-13
-1.5656e-10
1.49985e-10
1.18587e-12
-2.31496e-10
8.75273e-11
2.48932e-12
-2.96661e-10
3.79707e-11
4.59232e-12
-3.30123e-10
1.25865e-11
7.27807e-12
-3.39577e-10
3.5607e-12
1.34676e-11
4.43359e-11
1.2506e-11
6.58562e-11
1.82517e-10
6.13662e-11
1.18957e-10
2.8041e-10
9.1392e-11
1.60658e-10
2.98499e-10
5.68623e-11
1.78236e-10
2.95711e-10
1.77121e-11
1.53877e-10
3.40348e-10
4.07496e-12
7.84825e-11
3.66546e-10
9.14319e-13
1.86197e-11
-3.36971e-10
3.53626e-10
1.63851e-13
1.52902e-13
-1.19441e-10
1.58207e-10
4.49585e-13
-1.79968e-10
1.06191e-10
7.95788e-13
-2.43875e-10
5.47802e-11
1.88009e-12
-2.86344e-10
2.22154e-11
4.2885e-12
-3.02425e-10
7.39951e-12
7.70911e-12
-3.01053e-10
2.17117e-12
3.34265e-12
1.94735e-11
2.69729e-12
1.55675e-11
7.62186e-11
1.79162e-11
3.36763e-11
1.2649e-10
3.66427e-11
5.39527e-11
1.45206e-10
3.63024e-11
7.84194e-11
1.42231e-10
1.74018e-11
1.09982e-10
1.74005e-10
5.57831e-12
1.23951e-10
2.36215e-10
1.74291e-12
8.55457e-11
2.94076e-10
4.61461e-13
3.40621e-11
-2.90228e-10
3.02038e-10
1.18653e-13
3.59875e-14
1.60363e-10
8.29532e-14
-1.38968e-10
1.19246e-10
2.43026e-13
-1.95797e-10
7.15082e-11
3.78963e-13
-2.42786e-10
3.37672e-11
1.08006e-12
-2.6651e-10
1.33258e-11
2.80341e-12
-2.70036e-10
4.52431e-12
6.22566e-12
-2.60177e-10
1.36863e-12
4.97016e-13
2.62284e-13
5.34753e-12
1.65551e-12
1.92144e-11
2.62566e-12
4.4906e-12
3.20656e-11
6.67396e-12
7.65273e-12
3.81791e-11
9.30097e-12
1.27928e-11
3.63125e-11
6.55728e-12
2.13835e-11
4.04176e-11
2.8405e-12
3.84967e-11
5.71088e-11
1.15028e-12
5.84932e-11
9.23125e-11
4.3944e-13
6.44289e-11
1.44457e-10
1.59014e-13
4.3259e-11
-2.39458e-10
1.96241e-10
9.4208e-14
6.36968e-13
-7.11289e-10
1.15047e-09
2.2905e-10
1.0004e-12
-4.50155e-10
2.67673e-10
1.8752e-12
9.19432e-10
1.41511e-10
1.06078e-12
-6.80041e-10
8.60975e-10
3.07207e-11
1.2782e-12
2.85996e-10
1.87993e-12
-4.95793e-10
1.17731e-10
1.23774e-11
7.08295e-10
1.42648e-10
7.12126e-12
8.71421e-10
5.23163e-11
1.18285e-12
-6.06447e-10
6.29164e-10
6.05779e-12
2.24168e-12
-3.53448e-10
1.62131e-10
2.38885e-12
-4.98898e-10
5.2173e-11
5.02699e-11
5.15008e-10
1.5658e-10
3.81973e-11
8.42323e-10
1.04253e-10
1.38646e-11
6.14652e-10
1.60732e-11
1.80962e-12
-5.47983e-10
5.52542e-10
1.68029e-12
2.36192e-12
-2.56453e-10
1.95949e-10
2.8162e-12
-3.92932e-10
8.63627e-11
3.18514e-12
-4.75846e-10
2.41229e-11
8.48428e-11
3.48332e-10
1.47779e-10
1.26652e-10
7.78655e-10
1.79359e-10
7.13264e-11
6.35995e-10
5.10509e-11
2.54013e-11
5.22882e-10
6.03646e-12
2.25382e-12
-5.02531e-10
5.04219e-10
8.40191e-13
1.43988e-12
-1.89205e-10
2.1286e-10
2.8296e-12
-3.00934e-10
1.22056e-10
3.46727e-12
-3.9922e-10
4.55262e-11
3.83978e-12
-4.46769e-10
1.22574e-11
8.45157e-11
2.17917e-10
1.01979e-10
2.03489e-10
6.51964e-10
2.14681e-10
1.98121e-10
6.62796e-10
1.18552e-10
1.12649e-10
5.32402e-10
2.1645e-11
3.4699e-11
4.73821e-10
3.22541e-12
3.22334e-12
-4.61672e-10
4.63857e-10
4.4942e-13
7.61423e-13
-1.42736e-10
2.2013e-10
1.54463e-12
-2.28035e-10
1.48048e-10
3.06466e-12
-3.23665e-10
7.22401e-11
3.79569e-12
-3.88178e-10
2.46488e-11
4.85985e-12
-4.1358e-10
6.72142e-12
5.10647e-11
1.23664e-10
5.20345e-11
1.87955e-10
4.62434e-10
1.69378e-10
2.56141e-10
5.90102e-10
1.61994e-10
2.39547e-10
5.29505e-10
5.57472e-11
1.357e-10
4.62817e-10
1.06313e-11
4.81222e-11
4.39088e-10
1.74576e-12
5.01835e-12
-4.19751e-10
4.24208e-10
2.60257e-13
2.90862e-13
2.20703e-10
7.56198e-13
-1.73118e-10
1.65833e-10
1.49208e-12
-2.56019e-10
9.67617e-11
2.81552e-12
-3.28177e-10
4.1962e-11
4.24102e-12
-3.6546e-10
1.38983e-11
6.04137e-12
-3.76532e-10
3.92078e-12
2.10318e-11
6.68146e-11
1.93529e-11
1.02384e-10
2.74525e-10
9.03238e-11
1.80455e-10
4.14352e-10
1.3113e-10
2.28318e-10
4.26909e-10
7.9542e-11
2.19507e-10
3.94106e-10
2.35813e-11
1.55148e-10
4.08503e-10
5.00426e-12
6.38441e-11
4.04931e-10
1.02993e-12
9.16785e-12
-3.74206e-10
3.8375e-10
1.60564e-13
2.52567e-13
-1.32302e-10
1.75245e-10
6.72844e-13
-1.99355e-10
1.1762e-10
1.16745e-12
-2.70174e-10
6.06683e-11
2.43058e-12
-3.173e-10
2.45982e-11
4.51823e-12
-3.35407e-10
8.18741e-12
7.12756e-12
-3.35224e-10
2.39575e-12
6.70873e-12
3.55035e-11
5.46635e-12
3.4398e-11
1.42644e-10
3.35483e-11
7.36934e-11
2.34875e-10
6.68838e-11
1.14163e-10
2.65574e-10
6.41066e-11
1.48824e-10
2.52262e-10
2.99067e-11
1.76147e-10
2.82931e-10
8.96341e-12
1.55438e-10
3.366e-10
2.53461e-12
7.90894e-11
3.6042e-10
5.76185e-13
1.79871e-11
-3.25072e-10
3.41203e-10
1.08233e-13
8.5526e-14
1.77924e-10
1.91944e-13
-1.54157e-10
1.32286e-10
4.7537e-13
-2.17216e-10
7.93006e-11
7.84672e-13
-2.69405e-10
3.74351e-11
1.8288e-12
-2.95729e-10
1.47709e-11
4.20834e-12
-3.00072e-10
5.01327e-12
7.42411e-12
-2.90768e-10
1.51254e-12
1.64541e-12
1.16006e-12
1.7165e-11
7.09603e-12
6.44774e-11
8.99795e-12
1.83836e-11
1.0812e-10
2.23933e-11
3.17765e-11
1.27755e-10
2.99695e-11
4.93803e-11
1.20963e-10
2.09832e-11
7.44741e-11
1.29632e-10
8.68423e-12
1.08608e-10
1.68387e-10
3.29428e-12
1.22786e-10
2.30453e-10
1.07387e-12
8.35698e-11
2.83062e-10
2.96652e-13
3.21328e-11
-2.73045e-10
2.84209e-10
8.11015e-14
4.54558e-14
-1.1915e-10
1.40499e-10
1.00743e-13
-1.71697e-10
9.50447e-11
2.53077e-13
-2.23311e-10
5.17809e-11
3.59557e-13
-2.56295e-10
2.31922e-11
1.05008e-12
-2.66891e-10
9.13035e-12
2.70538e-12
-2.61523e-10
3.16457e-12
5.85956e-12
-2.44926e-10
9.77183e-13
6.75755e-13
1.28862e-12
1.75124e-11
9.5363e-13
2.84229e-13
4.10969e-12
2.15269e-12
2.88021e-11
3.73647e-12
4.21604e-12
3.43567e-11
6.28038e-12
7.22623e-12
3.24363e-11
5.95093e-12
1.16723e-11
3.18413e-11
3.46131e-12
2.0653e-11
3.77317e-11
1.5647e-12
3.75915e-11
5.51896e-11
6.81712e-13
5.63238e-11
8.82982e-11
2.74141e-13
6.0929e-11
1.35368e-10
1.02208e-13
3.97062e-11
-2.19188e-10
1.7951e-10
6.55585e-14
4.78058e-13
-7.68913e-10
1.24385e-09
2.47433e-10
7.50006e-13
-4.88502e-10
2.90402e-10
1.33479e-12
9.97189e-10
1.53823e-10
7.88939e-13
-7.37844e-10
9.33966e-10
3.31994e-11
1.00393e-12
3.11388e-10
1.39522e-12
-5.39957e-10
1.28075e-10
8.64428e-12
7.68324e-10
1.54841e-10
5.11039e-12
9.48029e-10
5.64681e-11
8.99668e-13
-6.601e-10
6.84592e-10
6.51155e-12
1.75933e-12
-3.86309e-10
1.76995e-10
1.78306e-12
-5.44986e-10
5.68759e-11
3.63352e-11
5.54592e-10
1.67638e-10
2.71227e-11
9.13419e-10
1.11724e-10
1.00437e-11
6.68676e-10
1.66245e-11
1.39971e-12
-5.98296e-10
6.02983e-10
1.78144e-12
2.072e-12
-2.81144e-10
2.14611e-10
2.26681e-12
-4.30727e-10
9.45098e-11
2.4254e-12
-5.21398e-10
2.63476e-11
6.76243e-11
3.74296e-10
1.5793e-10
9.62497e-11
8.38693e-10
1.90612e-10
5.21773e-11
6.85471e-10
5.25828e-11
1.93551e-11
5.68613e-10
6.04909e-12
1.68343e-12
-5.50268e-10
5.51628e-10
8.8984e-13
1.44459e-12
-2.07923e-10
2.33794e-10
2.60887e-12
-3.30763e-10
1.34001e-10
2.8867e-12
-4.38838e-10
4.99349e-11
2.92283e-12
-4.90908e-10
1.34173e-11
7.7427e-11
2.43746e-10
1.11675e-10
1.78044e-10
7.18253e-10
2.33627e-10
1.64805e-10
7.22367e-10
1.26303e-10
8.98544e-11
5.74349e-10
2.23791e-11
2.66052e-11
5.15076e-10
3.27359e-12
2.31353e-12
-5.0692e-10
5.08194e-10
4.76181e-13
8.59825e-13
-1.57186e-10
2.42373e-10
1.65387e-12
-2.51165e-10
1.62982e-10
2.99154e-12
-3.56579e-10
7.94887e-11
3.21549e-12
-4.27762e-10
2.70992e-11
3.74229e-12
-4.55671e-10
7.37393e-12
5.60295e-11
1.51103e-10
6.18491e-11
1.95986e-10
5.49464e-10
1.96448e-10
2.58495e-10
6.89139e-10
1.85984e-10
2.27731e-10
5.99887e-10
6.28828e-11
1.14062e-10
5.05693e-10
1.14102e-11
3.72993e-11
4.76078e-10
1.82795e-12
3.19401e-12
-4.6214e-10
4.64139e-10
2.74124e-13
3.7146e-13
2.43548e-10
9.17125e-13
-1.91055e-10
1.8299e-10
1.71133e-12
-2.82592e-10
1.06755e-10
2.92516e-12
-3.62325e-10
4.62775e-11
3.68783e-12
-4.03694e-10
1.5316e-11
4.75106e-12
-4.1605e-10
4.31011e-12
2.76968e-11
9.06849e-11
2.63141e-11
1.31754e-10
3.67253e-10
1.17846e-10
2.27818e-10
5.44192e-10
1.67924e-10
2.74259e-10
5.45207e-10
1.00352e-10
2.33878e-10
4.75648e-10
2.85449e-11
1.40306e-10
4.5888e-10
5.68075e-12
4.99307e-11
4.38759e-10
1.10795e-12
4.95793e-12
-4.13382e-10
4.17687e-10
1.65215e-13
3.56417e-13
-1.46288e-10
1.93769e-10
8.8223e-13
-2.20439e-10
1.30044e-10
1.47041e-12
-2.98785e-10
6.70672e-11
2.74254e-12
-3.50996e-10
2.71854e-11
4.14335e-12
-3.713e-10
9.04169e-12
5.90214e-12
-3.71698e-10
2.63834e-12
1.05913e-11
5.4088e-11
8.84403e-12
5.69328e-11
2.19951e-10
5.13919e-11
1.20757e-10
3.57809e-10
9.98035e-11
1.81115e-10
3.97716e-10
9.33715e-11
2.15079e-10
3.65033e-10
4.23604e-11
2.19037e-10
3.7719e-10
1.20056e-11
1.57493e-10
4.04762e-10
3.11788e-12
6.48683e-11
3.98357e-10
6.43465e-13
8.84997e-12
-3.60984e-10
3.70177e-10
1.05135e-13
1.4057e-13
1.97087e-10
3.09829e-13
-1.70758e-10
1.4653e-10
7.05912e-13
-2.40617e-10
8.78325e-11
1.14862e-12
-2.98455e-10
4.14589e-11
2.3585e-12
-3.27695e-10
1.63559e-11
4.41807e-12
-3.32794e-10
5.54744e-12
6.85109e-12
-3.23772e-10
1.66906e-12
3.29995e-12
2.45314e-12
3.13959e-11
1.64968e-11
1.21482e-10
1.72277e-11
4.16419e-11
2.03409e-10
4.17564e-11
7.17123e-11
2.38228e-10
5.42932e-11
1.04817e-10
2.23515e-10
3.74159e-11
1.42942e-10
2.29424e-10
1.49459e-11
1.74649e-10
2.742e-10
5.32236e-12
1.55101e-10
3.29087e-10
1.55243e-12
7.77045e-11
3.47279e-10
3.65613e-13
1.69436e-11
-3.05826e-10
3.2105e-10
7.27701e-14
1.06002e-13
-1.32171e-10
1.55877e-10
2.20715e-13
-1.90475e-10
1.05425e-10
4.87323e-13
-2.47757e-10
5.74186e-11
7.50529e-13
-2.84398e-10
2.57128e-11
1.77612e-12
-2.96149e-10
1.01223e-11
4.05211e-12
-2.90609e-10
3.50712e-12
6.97801e-12
-2.73731e-10
1.08008e-12
3.13396e-12
4.47475e-12
5.87045e-11
3.35248e-12
1.75342e-12
1.30128e-11
9.14053e-12
9.74864e-11
1.26435e-11
1.7916e-11
1.15934e-10
2.0515e-11
2.93242e-11
1.09455e-10
1.93794e-11
4.57444e-11
1.05575e-10
1.09679e-11
7.18943e-11
1.20989e-10
4.84094e-12
1.0664e-10
1.6276e-10
1.93905e-12
1.19082e-10
2.20707e-10
6.70711e-13
7.9392e-11
2.65859e-10
1.83325e-13
2.94743e-11
-2.49946e-10
2.60204e-10
5.50368e-14
2.0124e-14
1.58476e-10
5.70297e-14
-1.49276e-10
1.18022e-10
1.1715e-13
-2.01267e-10
7.28836e-11
2.45222e-13
-2.41786e-10
3.70274e-11
3.41548e-13
-2.6023e-10
1.61901e-11
1.00516e-12
-2.59824e-10
6.42692e-12
2.54754e-12
-2.46575e-10
2.26567e-12
5.36575e-12
-2.24283e-10
7.07006e-13
9.22216e-13
2.00632e-12
2.71622e-11
1.10232e-12
2.69404e-12
1.40002e-11
1.16704e-12
2.22176e-13
2.72049e-12
2.11405e-12
3.21814e-11
3.79773e-12
4.08635e-12
3.02192e-11
4.41121e-12
6.57231e-12
2.78637e-11
3.3563e-12
1.09915e-11
2.83568e-11
1.84471e-12
1.99785e-11
3.59044e-11
8.7142e-13
3.61069e-11
5.24707e-11
4.02263e-13
5.29276e-11
8.25517e-11
1.63089e-13
5.59894e-11
1.23564e-10
5.94483e-14
3.54214e-11
-1.95151e-10
1.59751e-10
4.41897e-14
3.65295e-13
-8.27834e-10
1.33933e-09
2.66244e-10
5.6908e-13
-5.28096e-10
3.13883e-10
9.82942e-13
1.07764e-09
1.66557e-10
5.94518e-13
-7.97563e-10
1.00941e-09
3.57798e-11
7.88011e-13
3.37854e-10
1.0426e-12
-5.85961e-10
1.38872e-10
6.21115e-12
8.31852e-10
1.6777e-10
3.73745e-12
1.02825e-09
6.0908e-11
6.96394e-13
-7.16056e-10
7.42462e-10
6.99651e-12
1.37199e-12
-4.20819e-10
1.92637e-10
1.33869e-12
-5.93417e-10
6.18363e-11
2.63946e-11
5.98223e-10
1.80042e-10
1.95094e-11
9.90496e-10
1.19988e-10
7.43476e-12
7.26362e-10
1.73072e-11
1.10385e-12
-6.51231e-10
6.56149e-10
1.88931e-12
1.76737e-12
-3.07267e-10
2.34364e-10
1.80538e-12
-4.7067e-10
1.0314e-10
1.84865e-12
-5.69552e-10
2.8708e-11
5.25244e-11
4.00868e-10
1.68824e-10
7.15203e-11
9.03257e-10
2.0253e-10
3.82127e-11
7.40095e-10
5.42693e-11
1.48989e-11
6.18037e-10
6.02691e-12
1.29538e-12
-6.00781e-10
6.02007e-10
9.4277e-13
1.39197e-12
-2.27882e-10
2.56104e-10
2.31665e-12
-3.62551e-10
1.46728e-10
2.36715e-12
-4.81002e-10
5.46337e-11
2.21473e-12
-5.37868e-10
1.46559e-11
6.65747e-11
2.65385e-10
1.19764e-10
1.46625e-10
7.77854e-10
2.50188e-10
1.30637e-10
7.78035e-10
1.32215e-10
7.03487e-11
6.18002e-10
2.26993e-11
2.0567e-11
5.60444e-10
3.2715e-12
1.7605e-12
-5.55096e-10
5.56034e-10
5.05443e-13
9.24758e-13
-1.72693e-10
2.66228e-10
1.68073e-12
-2.75989e-10
1.78994e-10
2.7868e-12
-3.91888e-10
8.72555e-11
2.67264e-12
-4.70156e-10
2.97253e-11
2.84724e-12
-5.00682e-10
8.07447e-12
5.56229e-11
1.74726e-10
6.94265e-11
1.85778e-10
6.22254e-10
2.17882e-10
2.38919e-10
7.70741e-10
2.04829e-10
2.02153e-10
6.58222e-10
6.80077e-11
9.26512e-11
5.47022e-10
1.18438e-11
2.91752e-11
5.17712e-10
1.8798e-12
2.29318e-12
-5.07436e-10
5.08522e-10
2.90762e-13
4.4637e-13
2.68161e-10
1.04429e-12
-2.10391e-10
2.01472e-10
1.839e-12
-3.11241e-10
1.17516e-10
2.86172e-12
-3.99131e-10
5.09213e-11
3.11275e-12
-4.44838e-10
1.68415e-11
3.63756e-12
-4.58382e-10
4.72971e-12
3.21031e-11
1.14121e-10
3.25764e-11
1.48095e-10
4.53281e-10
1.41691e-10
2.52643e-10
6.60995e-10
1.99767e-10
2.93692e-10
6.48e-10
1.18439e-10
2.26978e-10
5.42946e-10
3.25295e-11
1.19654e-10
5.01984e-10
6.1562e-12
3.89022e-11
4.75834e-10
1.16193e-12
3.17664e-12
-4.55125e-10
4.57007e-10
1.73801e-13
4.59352e-13
-1.61434e-10
2.13823e-10
1.06551e-12
-2.43278e-10
1.43493e-10
1.69107e-12
-3.29782e-10
7.39921e-11
2.84428e-12
-3.87502e-10
2.99831e-11
3.5773e-12
-4.10133e-10
9.96516e-12
4.63174e-12
-4.10702e-10
2.90073e-12
1.43155e-11
7.44599e-11
1.25008e-11
7.80451e-11
3.02722e-10
6.97334e-11
1.64331e-10
4.8583e-10
1.32634e-10
2.40576e-10
5.31455e-10
1.22215e-10
2.6428e-10
4.72581e-10
5.42181e-11
2.36065e-10
4.55748e-10
1.46495e-11
1.43062e-10
4.55331e-10
3.53964e-12
5.12019e-11
4.31775e-10
6.87037e-13
4.79753e-12
-3.98769e-10
4.02879e-10
1.076e-13
1.99927e-13
2.17921e-10
4.32126e-13
-1.88809e-10
1.62016e-10
9.22723e-13
-2.66065e-10
9.71072e-11
1.44465e-12
-3.30056e-10
4.58319e-11
2.65292e-12
-3.62486e-10
1.80771e-11
4.03658e-12
-3.68402e-10
6.12669e-12
5.66352e-12
-3.58997e-10
1.83816e-12
5.26947e-12
4.08393e-12
4.80346e-11
2.87947e-11
1.89415e-10
2.70825e-11
7.1437e-11
3.15457e-10
6.39488e-11
1.21971e-10
3.65948e-10
8.13127e-11
1.68959e-10
3.39209e-10
5.50548e-11
2.09143e-10
3.32026e-10
2.13226e-11
2.18059e-10
3.66226e-10
7.13226e-12
1.58243e-10
3.96435e-10
1.89901e-12
6.41379e-11
3.83986e-10
4.01351e-13
8.33651e-12
-3.39605e-10
3.48248e-10
6.97417e-14
1.73043e-13
-1.46402e-10
1.72664e-10
3.49323e-13
-2.10989e-10
1.16774e-10
7.18707e-13
-2.74449e-10
6.35951e-11
1.10019e-12
-3.15062e-10
2.8477e-11
2.2869e-12
-3.28158e-10
1.12089e-11
4.24344e-12
-3.22297e-10
3.88095e-12
6.43162e-12
-3.04802e-10
1.19187e-12
7.68399e-12
8.67681e-12
1.10708e-10
6.93588e-12
4.08951e-12
2.3723e-11
2.1511e-11
1.84415e-10
2.38508e-11
4.17421e-11
2.18429e-10
3.77299e-11
6.60359e-11
2.05827e-10
3.52696e-11
9.83094e-11
1.9472e-10
1.95548e-11
1.38403e-10
2.14274e-10
8.36343e-12
1.72498e-10
2.65423e-10
3.1276e-12
1.51254e-10
3.15695e-10
9.64007e-13
7.41659e-11
3.26425e-10
2.16681e-13
1.55259e-11
-2.79953e-10
2.93926e-10
4.80335e-14
5.22429e-14
1.75828e-10
1.26956e-13
-1.65597e-10
1.30929e-10
2.44169e-13
-2.23294e-10
8.08349e-11
4.72155e-13
-2.68264e-10
4.10581e-11
7.17447e-13
-2.88764e-10
1.79517e-11
1.69856e-12
-2.88306e-10
7.12616e-12
3.80981e-12
-2.73997e-10
2.51127e-12
6.38379e-12
-2.50665e-10
7.81513e-13
4.23924e-12
6.81608e-12
9.1828e-11
5.79397e-12
9.48682e-12
4.62795e-11
3.91515e-12
1.40705e-12
8.85763e-12
9.3165e-12
1.0889e-10
1.24846e-11
1.69354e-11
1.02629e-10
1.44911e-11
2.70007e-11
9.3686e-11
1.084e-11
4.30121e-11
9.40413e-11
5.89539e-12
6.98601e-11
1.15036e-10
2.68363e-12
1.0279e-10
1.54809e-10
1.1532e-12
1.12536e-10
2.06533e-10
3.8863e-13
7.32029e-11
2.43077e-10
9.6484e-14
2.62822e-11
-2.22545e-10
2.31704e-10
3.51776e-14
2.53834e-14
1.38519e-10
7.16434e-14
-1.78612e-10
9.52948e-11
1.21185e-13
-2.2354e-10
5.45164e-11
2.32302e-13
-2.4996e-10
2.65249e-11
3.20866e-13
-2.55473e-10
1.15178e-11
9.42117e-13
-2.45709e-10
4.61854e-12
2.33395e-12
-2.25995e-10
1.64375e-12
4.77887e-12
-1.99735e-10
5.11895e-13
9.77109e-13
2.13867e-12
3.10719e-11
1.70705e-12
4.79099e-12
2.33582e-11
1.968e-12
2.30869e-12
9.94574e-12
9.5979e-13
1.20393e-13
1.64034e-12
2.19359e-12
2.89831e-11
2.84026e-12
3.77437e-12
2.58649e-11
2.63561e-12
6.07409e-12
2.38618e-11
1.7772e-12
1.04957e-11
2.62782e-11
9.75212e-13
1.9091e-11
3.37763e-11
4.7487e-13
3.38777e-11
4.88632e-11
2.13081e-13
4.84173e-11
7.52318e-11
7.76477e-14
4.99874e-11
1.09801e-10
2.16919e-14
3.07493e-11
-1.69174e-10
1.38443e-10
2.60367e-14
2.84456e-13
-8.87377e-10
1.43581e-09
2.85266e-10
4.37656e-13
-5.68572e-10
3.37895e-10
7.49576e-13
1.15998e-09
1.79581e-10
4.55391e-13
-8.58634e-10
1.08658e-09
3.84338e-11
6.19917e-13
3.65195e-10
7.87086e-13
-6.33464e-10
1.50039e-10
4.58878e-12
8.98008e-10
1.81256e-10
2.79129e-12
1.11133e-09
6.55862e-11
5.47895e-13
-7.73889e-10
8.02309e-10
7.50817e-12
1.06766e-12
-4.56755e-10
2.08952e-10
1.01489e-12
-6.4388e-10
6.70196e-11
1.94192e-11
6.45286e-10
1.93542e-10
1.42699e-11
1.0723e-09
1.28967e-10
5.63244e-12
7.87047e-10
1.81254e-11
8.84225e-13
-7.06438e-10
7.11651e-10
2.00351e-12
1.476e-12
-3.34725e-10
2.5514e-10
1.42908e-12
-5.1263e-10
1.12226e-10
1.41776e-12
-6.2016e-10
3.11961e-11
4.03636e-11
4.29451e-10
1.80933e-10
5.27855e-11
9.73599e-10
2.15674e-10
2.83202e-11
7.99931e-10
5.6311e-11
1.16206e-11
6.7074e-10
5.99458e-12
1.02087e-12
-6.53917e-10
6.55082e-10
9.98484e-13
1.2975e-12
-2.49014e-10
2.79717e-10
1.99789e-12
-3.96186e-10
1.60198e-10
1.9208e-12
-5.25573e-10
5.96083e-11
1.68338e-12
-5.87511e-10
1.59694e-11
5.49664e-11
2.84957e-10
1.2752e-10
1.16005e-10
8.3645e-10
2.6625e-10
1.0066e-10
8.35146e-10
1.37457e-10
5.47913e-11
6.65081e-10
2.27821e-11
1.60702e-11
6.09301e-10
3.2299e-12
1.37944e-12
-6.0608e-10
6.06868e-10
5.36432e-13
9.55187e-13
-1.89229e-10
2.91652e-10
1.63769e-12
-3.0246e-10
1.96056e-10
2.50256e-12
-4.29518e-10
9.55279e-11
2.19352e-12
-5.15278e-10
3.25232e-11
2.16106e-12
-5.48577e-10
8.82215e-12
5.12991e-11
1.94481e-10
7.52272e-11
1.63951e-10
6.84145e-10
2.353e-10
2.06783e-10
8.40646e-10
2.19713e-10
1.70987e-10
7.09953e-10
7.14293e-11
7.40373e-11
5.89756e-10
1.20018e-11
2.30788e-11
5.63497e-10
1.90462e-12
1.74513e-12
-5.55667e-10
5.56412e-10