/*--------------------------------*- C++ -*----------------------------------*\
  =========                 |
  \\      /  F ield         | OpenFOAM: The Open Source CFD Toolbox
   \\    /   O peration     | Website:  https://openfoam.org
    \\  /    A nd           | Version:  7
     \\/     M anipulation  |
\*---------------------------------------------------------------------------*/
FoamFile
{
    version     2.0;
    format      ascii;
    class       volVectorField;
    location    "100";
    object      U;
}
// * * * * * * * * * * * * * * * * * * * * * * * * * * * * * * * * * * * * * //

dimensions      [0 1 -1 0 0 0 0];

internalField   nonuniform List<vector> 
43305
(
(0.199009 0.0155405 -0.184014)
(0.202845 0.0189004 -0.186066)
(0.139197 0.00112087 -0.197807)
(0.105857 0.0338548 -0.299321)
(0.0267354 0.0124374 -0.135184)
(0.204817 0.0113416 -0.186728)
(0.139446 0.00229288 -0.202697)
(0.157678 0.0545919 -0.395573)
(0.0255863 0.0159411 -0.136194)
(0.111425 0.000283329 -0.118118)
(0.0607107 0.00113809 -0.171594)
(0.03971 0.0121033 -0.171956)
(0.0362108 0.0268903 -0.192254)
(0.0085112 0.00822017 -0.0975475)
(0.20566 0.00618708 -0.186702)
(0.139682 0.00227532 -0.205822)
(0.170686 0.0444714 -0.405271)
(0.02464 0.0093889 -0.136335)
(0.11149 0.000748809 -0.118467)
(0.0606251 0.0022853 -0.175634)
(0.08718 0.0514067 -0.305612)
(0.0537958 0.0471018 -0.271352)
(0.00760687 0.0108741 -0.0980962)
(0.0675399 0.000358018 -0.118526)
(0.0318073 0.000778366 -0.139038)
(0.01585 0.00223618 -0.0745177)
(0.0270819 0.0101599 -0.13059)
(0.0211494 0.0189356 -0.11345)
(0.00225535 0.00628885 -0.0756683)
(0.205937 0.00334914 -0.186483)
(0.139888 0.00197575 -0.207552)
(0.173713 0.0284302 -0.400019)
(0.0239616 0.00496135 -0.136183)
(0.111583 0.000946699 -0.118844)
(0.0605141 0.0022261 -0.178127)
(0.105804 0.0550889 -0.342405)
(0.0570471 0.0432179 -0.281186)
(0.00692175 0.00638458 -0.0981012)
(0.0675351 0.000858037 -0.118871)
(0.031678 0.00158773 -0.141778)
(0.04238 0.0246093 -0.175907)
(0.0525717 0.0410156 -0.248414)
(0.0332313 0.035376 -0.166008)
(0.00185509 0.00827578 -0.0760185)
(0.0668979 9.14825e-05 -0.0997871)
(0.0415936 0.000244594 -0.109847)
(0.0151074 0.000592816 -0.112088)
(0.00665539 0.00045317 -0.0416167)
(0.0235846 0.00280008 -0.0789588)
(0.0221179 0.00690466 -0.0701903)
(0.00512357 0.0141809 -0.0852675)
(0.00121296 0.0051412 -0.0613541)
(0.205989 0.00192099 -0.186212)
(0.140036 0.001561 -0.208428)
(0.174343 0.0167773 -0.395073)
(0.0234928 0.00260421 -0.135992)
(0.11167 0.000920168 -0.119211)
(0.0604093 0.0019647 -0.179402)
(0.111416 0.0455333 -0.345568)
(0.0564752 0.0318705 -0.276617)
(0.00647133 0.00330703 -0.0979356)
(0.0675069 0.0010092 -0.119225)
(0.0315384 0.00157595 -0.143449)
(0.0580309 0.036693 -0.226725)
(0.0621283 0.0501911 -0.287035)
(0.0363481 0.0350281 -0.173029)
(0.00155019 0.00475303 -0.0759692)
(0.0669032 0.000235905 -0.0998798)
(0.0415525 0.000602882 -0.110082)
(0.0150501 0.00120157 -0.114189)
(0.0184384 0.00827466 -0.106437)
(0.0524586 0.0214923 -0.190284)
(0.044362 0.0299103 -0.14226)
(0.00831811 0.0270265 -0.12581)
(0.0010182 0.00674552 -0.0616171)
(0.0615439 1.84962e-05 -0.0788611)
(0.047957 6.98542e-05 -0.098332)
(0.0235993 0.000191778 -0.0953495)
(0.0082494 0.000470432 -0.0925488)
(0.00254769 9.24739e-05 -0.0216035)
(0.0157803 0.00101311 -0.0529821)
(0.0207697 0.00233209 -0.0443136)
(0.00604608 0.00440449 -0.0500338)
(0.00311726 0.0116251 -0.0686007)
(0.000644315 0.00436735 -0.0515158)
(0.205965 0.00118385 -0.185943)
(0.14013 0.00118166 -0.208871)
(0.174512 0.00976614 -0.392071)
(0.0231792 0.00151256 -0.135796)
(0.111737 0.00080859 -0.119515)
(0.060322 0.00157842 -0.179949)
(0.112203 0.0328495 -0.341042)
(0.0551326 0.0215595 -0.271962)
(0.00618914 0.00167678 -0.0977527)
(0.0674758 0.000975268 -0.119574)
(0.0313943 0.00140434 -0.144261)
(0.0646593 0.0397471 -0.242813)
(0.0638563 0.0474546 -0.293136)
(0.0363109 0.0278262 -0.169719)
(0.00135654 0.00244387 -0.0758125)
(0.0669043 0.000327136 -0.100013)
(0.0414947 0.000730888 -0.110326)
(0.0149824 0.00118455 -0.11543)
(0.0276072 0.0169964 -0.151802)
(0.0677371 0.0360344 -0.25156)
(0.0545019 0.0399324 -0.16995)
(0.00911167 0.027464 -0.131048)
(0.000875705 0.0038046 -0.0615615)
(0.0615461 5.9271e-05 -0.0788797)
(0.047949 0.000184358 -0.0983944)
(0.0235815 0.000468304 -0.0955257)
(0.00821935 0.000946323 -0.0942751)
(0.00710283 0.00327812 -0.0584744)
(0.0399577 0.0097462 -0.141418)
(0.0488262 0.0159916 -0.113875)
(0.0131876 0.0217182 -0.101514)
(0.00524346 0.0221098 -0.102027)
(0.000526898 0.00573011 -0.0517234)
(0.0551951 7.7976e-06 -0.0654476)
(0.0489226 1.43704e-05 -0.0810711)
(0.0315636 5.93279e-05 -0.0903827)
(0.0139614 0.000150538 -0.0817228)
(0.00478076 0.000394272 -0.0783264)
(0.000941393 7.2735e-05 -0.0119895)
(0.00924687 0.000447281 -0.0340015)
(0.0154229 0.000833617 -0.0335614)
(0.00748093 0.00140732 -0.0308241)
(0.00374201 0.00343427 -0.0389421)
(0.00145391 0.0098265 -0.0574532)
(0.000403377 0.0038002 -0.0444173)
(0.205921 0.000778813 -0.185699)
(0.140182 0.000873568 -0.209101)
(0.174679 0.00580882 -0.390333)
(0.0229726 0.000979503 -0.135612)
(0.11178 0.00067387 -0.119751)
(0.0602552 0.00121898 -0.18017)
(0.111876 0.021971 -0.337209)
(0.0539612 0.014288 -0.269215)
(0.00599949 0.000945505 -0.0975714)
(0.0674457 0.000855636 -0.119868)
(0.0312656 0.00113634 -0.144555)
(0.0659969 0.0360602 -0.242187)
(0.0623256 0.0387615 -0.289596)
(0.0351306 0.0201063 -0.166202)
(0.0012452 0.00126338 -0.0756599)
(0.0669041 0.000385218 -0.100157)
(0.0414305 0.000718637 -0.110567)
(0.0149096 0.00105838 -0.116011)
(0.033023 0.0229246 -0.1761)
(0.0738547 0.043303 -0.27601)
(0.057902 0.0405734 -0.176387)
(0.00894253 0.0227348 -0.128366)
(0.000785864 0.00191612 -0.0614242)
(0.0615473 9.99689e-05 -0.0789098)
(0.0479362 0.000262451 -0.0984878)
(0.0235525 0.000564351 -0.0957058)
(0.00818411 0.000920343 -0.0952771)
(0.0112019 0.00800309 -0.0895878)
(0.0564977 0.0211082 -0.206488)
(0.0659782 0.0288242 -0.15876)
(0.0170395 0.0304063 -0.121525)
(0.00593562 0.0225399 -0.10636)
(0.000445286 0.00320208 -0.0516664)
(0.0551956 2.35733e-05 -0.0654504)
(0.0489215 4.82183e-05 -0.0810851)
(0.0315591 0.000154107 -0.0904307)
(0.0139511 0.000365916 -0.081863)
(0.0047644 0.000789445 -0.0797986)
(0.00272345 0.00161481 -0.0332287)
(0.0255151 0.00506755 -0.0968171)
(0.0407452 0.00739605 -0.0946705)
(0.0190991 0.0112722 -0.0784202)
(0.00807794 0.0170999 -0.0792865)
(0.00241845 0.0188857 -0.0859954)
(0.000329209 0.0049887 -0.044588)
(0.0491749 2.1052e-06 -0.0548632)
(0.0472384 6.74913e-06 -0.0682106)
(0.0360685 1.43545e-05 -0.0786967)
(0.0203505 4.6009e-05 -0.0805622)
(0.0084913 0.000125872 -0.0703189)
(0.00300853 0.000340104 -0.0678094)
(0.000274458 9.89742e-05 -0.0076337)
(0.00531272 0.000222404 -0.022667)
(0.0103885 0.000325262 -0.0259114)
(0.00784582 0.000490416 -0.0232262)
(0.00439692 0.00113533 -0.0227635)
(0.00161645 0.00276922 -0.0321639)
(0.000972753 0.00853736 -0.0494331)
(0.000256545 0.00337471 -0.0391696)
(0.205874 0.000537367 -0.185487)
(0.140206 0.00064075 -0.209227)
(0.174894 0.00359871 -0.389238)
(0.022835 0.000682313 -0.135448)
(0.111804 0.000545926 -0.119922)
(0.0602061 0.000917784 -0.18026)
(0.111658 0.0142869 -0.335392)
(0.0531763 0.0095688 -0.267776)
(0.00586188 0.000604297 -0.0974022)
(0.0674202 0.000715983 -0.1201)
(0.0311565 0.000882303 -0.144628)
(0.0652161 0.0292613 -0.236425)
(0.0600312 0.0290417 -0.2853)
(0.0336291 0.0140595 -0.164032)
(0.00117731 0.000750461 -0.0755174)
(0.0669026 0.000405497 -0.100293)
(0.0413688 0.000640811 -0.110769)
(0.0148425 0.000863865 -0.11621)
(0.0351642 0.0246871 -0.184461)
(0.0746298 0.0430662 -0.280562)
(0.0576574 0.0353174 -0.175119)
(0.00838753 0.0174225 -0.125667)
(0.000732607 0.00097197 -0.0612954)
(0.0615482 0.000132338 -0.0789512)
(0.0479189 0.000314743 -0.0985906)
(0.0235184 0.000557367 -0.0958827)
(0.00814539 0.000812778 -0.0957355)
(0.0142904 0.012687 -0.112095)
(0.0658153 0.0304003 -0.244932)
(0.074847 0.0367941 -0.181114)
(0.018625 0.0324978 -0.126399)
(0.00602343 0.0186992 -0.104127)
(0.000396487 0.0015982 -0.0515456)
(0.0551959 3.94731e-05 -0.0654571)
(0.0489188 8.42351e-05 -0.0811086)
(0.031551 0.000216925 -0.0905012)
(0.0139349 0.000436858 -0.0820038)
(0.00474563 0.00076153 -0.0806449)
(0.00447054 0.00420346 -0.0527848)
(0.0390658 0.0126335 -0.151981)
(0.0599687 0.0169811 -0.145102)
(0.0274843 0.0215294 -0.109958)
(0.0104551 0.0241638 -0.0951177)
(0.00270339 0.0194072 -0.0897284)
(0.000278908 0.00277166 -0.0445325)
(0.0491749 7.2683e-06 -0.0548642)
(0.0472381 2.10284e-05 -0.0682128)
(0.0360681 4.48527e-05 -0.0787084)
(0.0203471 0.000119569 -0.0805998)
(0.00848586 0.000304459 -0.0704366)
(0.00299839 0.000678892 -0.0690941)
(0.000985468 0.00108523 -0.0215)
(0.0155405 0.00285925 -0.0666784)
(0.0295097 0.00379912 -0.0762437)
(0.0216771 0.00523238 -0.0652962)
(0.0110092 0.0085732 -0.0578588)
(0.0035359 0.014241 -0.0657322)
(0.00165837 0.0165508 -0.0743519)
(0.000205585 0.00443296 -0.0393142)
(0.0441113 1.76734e-06 -0.057302)
(0.0379885 6.94884e-06 -0.0684695)
(0.0253913 1.15923e-05 -0.0733795)
(0.0130797 3.77342e-05 -0.0709609)
(0.00544053 0.000108246 -0.0613424)
(0.00198865 0.00030053 -0.0599385)
(-8.35167e-06 9.9405e-05 -0.00559397)
(0.00318371 0.000123931 -0.0164434)
(0.0071694 0.000176479 -0.0207382)
(0.00717968 0.000192822 -0.0187137)
(0.00472801 0.000407484 -0.0159462)
(0.00182658 0.000903967 -0.018568)
(0.00109247 0.00234591 -0.0273827)
(0.000583981 0.00757033 -0.0435198)
(0.00017396 0.00305512 -0.0352742)
(0.20583 0.000383267 -0.185308)
(0.140212 0.000470403 -0.209299)
(0.175126 0.00233164 -0.388469)
(0.0227408 0.000491836 -0.135306)
(0.111814 0.000435361 -0.120041)
(0.0601705 0.000682746 -0.180298)
(0.111706 0.00934783 -0.334931)
(0.0527295 0.00654721 -0.26698)
(0.00575716 0.000422684 -0.0972516)
(0.0673995 0.000582227 -0.120273)
(0.0310677 0.000667452 -0.14462)
(0.0641037 0.0222157 -0.23095)
(0.0580758 0.020819 -0.282548)
(0.0321808 0.00980264 -0.162828)
(0.00113066 0.000509851 -0.0753877)
(0.0669004 0.000397244 -0.10041)
(0.0413133 0.000544488 -0.110925)
(0.0147847 0.000680383 -0.116253)
(0.0353485 0.0231299 -0.183758)
(0.0728589 0.0379084 -0.277017)
(0.0556823 0.0280041 -0.172259)
(0.00769164 0.0130929 -0.12404)
(0.000697036 0.000572653 -0.0611775)
(0.0615486 0.000155511 -0.0789998)
(0.0478989 0.000337007 -0.0986874)
(0.0234838 0.000502049 -0.0960299)
(0.00810854 0.000656358 -0.0958857)
(0.016036 0.0157325 -0.125264)
(0.0697032 0.0349776 -0.262222)
(0.0780532 0.0386834 -0.188621)
(0.0187343 0.0299782 -0.125807)
(0.00583229 0.0144071 -0.101922)
(0.000369269 0.000807248 -0.0514361)
(0.0551964 5.47056e-05 -0.0654675)
(0.0489146 0.000113838 -0.0811414)
(0.0315392 0.000260378 -0.0905786)
(0.0139152 0.000426909 -0.0821402)
(0.0047254 0.000668255 -0.0810272)
(0.00601491 0.00731722 -0.0693501)
(0.0486579 0.0206684 -0.19341)
(0.0725569 0.0260046 -0.179675)
(0.032782 0.0290529 -0.126713)
(0.0115423 0.0259968 -0.0990527)
(0.00271635 0.0162376 -0.0878166)
(0.000249638 0.00137499 -0.044425)
(0.0491749 1.35132e-05 -0.0548663)
(0.0472376 3.60691e-05 -0.0682182)
(0.0360662 7.51043e-05 -0.0787273)
(0.0203414 0.000168267 -0.0806545)
(0.00847724 0.000360627 -0.0705537)
(0.00298698 0.000651154 -0.0698281)
(0.00179628 0.00275468 -0.0348217)
(0.0252898 0.00780769 -0.109293)
(0.0464186 0.0101418 -0.123324)
(0.0333367 0.0126109 -0.101)
(0.0157587 0.0165048 -0.0813634)
(0.00460256 0.0203621 -0.0790835)
(0.00188935 0.0171275 -0.0776385)
(0.000171573 0.00245403 -0.0392606)
(0.0441112 6.53234e-06 -0.0573028)
(0.0379884 2.0583e-05 -0.0684716)
(0.0253905 3.6015e-05 -0.0733883)
(0.0130779 9.79057e-05 -0.0709924)
(0.00543718 0.00026095 -0.0614442)
(0.00198198 0.000598787 -0.0610818)
(0.000253497 0.000837071 -0.015993)
(0.00979204 0.00179421 -0.0492235)
(0.0212032 0.00229255 -0.0620184)
(0.0206111 0.00272604 -0.0551498)
(0.0128801 0.00390214 -0.0450622)
(0.00468517 0.0069681 -0.0470759)
(0.00240475 0.0122732 -0.0561381)
(0.000985049 0.0147968 -0.0657007)
(0.00013821 0.00401522 -0.0354003)
(0.0405226 8.79062e-07 -0.0487423)
(0.0377316 1.96486e-06 -0.058633)
(0.0289572 6.1558e-06 -0.0662581)
(0.0174126 9.60119e-06 -0.0667202)
(0.00861353 3.17249e-05 -0.0627086)
(0.00363221 9.56362e-05 -0.0544194)
(0.00137138 0.000271124 -0.054057)
(-0.000113715 9.87602e-05 -0.00465674)
(0.00210188 6.10181e-05 -0.0131704)
(0.0053239 0.000121933 -0.0171775)
(0.00615351 0.000107679 -0.0160623)
(0.00477018 0.000169492 -0.0124341)
(0.00202807 0.00030641 -0.0124743)
(0.00119086 0.000774732 -0.0156794)
(0.000625465 0.00203838 -0.0239202)
(0.000395242 0.00684796 -0.0391406)
(0.000119628 0.00281773 -0.0324068)
(0.20579 0.000279938 -0.185159)
(0.140208 0.000347598 -0.209342)
(0.175344 0.00157523 -0.387885)
(0.022674 0.000360172 -0.135187)
(0.111815 0.000344062 -0.120122)
(0.0601445 0.000505382 -0.180314)
(0.111908 0.00626441 -0.335112)
(0.0525116 0.00457551 -0.266477)
(0.00567669 0.000310269 -0.0971228)
(0.0673832 0.000464864 -0.120398)
(0.0309971 0.000499168 -0.144588)
(0.0632977 0.0162938 -0.227284)
(0.0567183 0.0147001 -0.28121)
(0.0309426 0.00691245 -0.162117)
(0.00109492 0.000375523 -0.0752733)
(0.066898 0.000368778 -0.100507)
(0.0412656 0.000449417 -0.111039)
(0.014737 0.000523944 -0.116242)
(0.0347636 0.0198019 -0.1794)
(0.0703434 0.0307689 -0.271793)
(0.0531695 0.0210531 -0.16993)
(0.00697333 0.00985248 -0.12313)
(0.000669521 0.000388077 -0.0610711)
(0.0615487 0.000168932 -0.0790518)
(0.0478778 0.000335289 -0.0987714)
(0.0234513 0.000432942 -0.096144)
(0.00807529 0.00051254 -0.0959141)
(0.0166424 0.0166475 -0.130775)
(0.0701821 0.0348897 -0.266232)
(0.0777119 0.0359262 -0.188315)
(0.0179536 0.0253963 -0.123973)
(0.0054996 0.0109348 -0.10062)
(0.000352017 0.000479242 -0.0513379)
(0.0551968 6.82143e-05 -0.0654816)
(0.0489092 0.000136196 -0.0811804)
(0.0315246 0.000280136 -0.0906513)
(0.0138945 0.000381242 -0.0822518)
(0.00470645 0.000536702 -0.0811498)
(0.00711627 0.0100312 -0.0815746)
(0.0541619 0.0265886 -0.219406)
(0.0793942 0.0317972 -0.19894)
(0.0354892 0.0323419 -0.133309)
(0.0117914 0.0241888 -0.0987469)
(0.00261562 0.0126485 -0.0859414)
(0.00023377 0.000691085 -0.0443294)
(0.049175 1.99694e-05 -0.0548697)
(0.0472366 5.06183e-05 -0.0682269)
(0.0360631 0.000100557 -0.0787537)
(0.0203331 0.000201847 -0.0807136)
(0.00846693 0.000349677 -0.0706665)
(0.00297483 0.000568485 -0.070157)
(0.00260944 0.00488409 -0.0470441)
(0.0334768 0.0140277 -0.146312)
(0.0595341 0.0177247 -0.161937)
(0.0421469 0.0203565 -0.12711)
(0.0188615 0.0225238 -0.0941285)
(0.00509254 0.02211 -0.0824913)
(0.00193206 0.0144215 -0.0759696)
(0.000152134 0.0012144 -0.0391633)
(0.0441111 1.2642e-05 -0.0573047)
(0.0379879 3.40436e-05 -0.0684764)
(0.0253888 6.0106e-05 -0.0734027)
(0.0130747 0.000137422 -0.0710378)
(0.00543194 0.000307259 -0.0615448)
(0.00197456 0.000572449 -0.061732)
(0.000661889 0.00208284 -0.0262316)
(0.016706 0.00518954 -0.0826054)
(0.0348254 0.00659916 -0.103066)
(0.0330036 0.00754379 -0.0899578)
(0.0197594 0.00941504 -0.0702366)
(0.00682084 0.0135501 -0.0662515)
(0.00314885 0.0177022 -0.0677246)
(0.00110806 0.0154221 -0.0686448)
(0.000114575 0.00221703 -0.0353488)
(0.0405225 3.09021e-06 -0.0487424)
(0.0377317 6.72467e-06 -0.0586339)
(0.0289569 1.78679e-05 -0.0662597)
(0.0174121 2.97211e-05 -0.0667274)
(0.00861241 8.22703e-05 -0.0627358)
(0.00363004 0.000230034 -0.0545094)
(0.00136677 0.00053949 -0.0550937)
(-3.17665e-05 0.000688423 -0.0134412)
(0.00675609 0.00118395 -0.0397888)
(0.0161096 0.00161741 -0.0519644)
(0.0180916 0.00168567 -0.0481585)
(0.013549 0.00203962 -0.0370052)
(0.00564986 0.00307845 -0.0350843)
(0.00303405 0.00591907 -0.0397585)
(0.00137734 0.0108455 -0.0491593)
(0.000668231 0.0134704 -0.0592554)
(9.343e-05 0.00370469 -0.0325199)
(0.0361681 8.92992e-07 -0.0502618)
(0.0307234 1.99445e-06 -0.0583756)
(0.0212146 5.38986e-06 -0.0622381)
(0.011932 7.83266e-06 -0.0601477)
(0.00583766 2.76665e-05 -0.0560239)
(0.00251601 8.6298e-05 -0.0491691)
(0.000972177 0.000249455 -0.0497112)
(0.00156126 2.35333e-05 -0.0115795)
(-0.000191822 6.93108e-05 -0.00373413)
(0.00431455 7.76017e-05 -0.0149661)
(0.00531318 7.41488e-05 -0.0142176)
(0.00456493 9.89262e-05 -0.0108819)
(0.00228292 0.000118904 -0.00924179)
(0.00124477 0.000260763 -0.0102401)
(0.000644146 0.000676667 -0.0136559)
(0.000417232 0.00181814 -0.0213832)
(0.000251244 0.00631185 -0.0359232)
(8.41234e-05 0.00264576 -0.0303431)
(0.205756 0.000208441 -0.185035)
(0.140199 0.000259307 -0.209368)
(0.175535 0.00110448 -0.387422)
(0.0226254 0.000266589 -0.135089)
(0.11181 0.000270569 -0.120174)
(0.060125 0.000374386 -0.180319)
(0.112162 0.00432313 -0.335523)
(0.0524299 0.00325909 -0.266122)
(0.0056155 0.000234008 -0.0970157)
(0.0673702 0.000366422 -0.120484)
(0.0309417 0.000372177 -0.144552)
(0.0628496 0.0117957 -0.225237)
(0.0558645 0.0103998 -0.280709)
(0.0299569 0.00496076 -0.161649)
(0.00106609 0.000287417 -0.0751756)
(0.0668953 0.000328655 -0.100584)
(0.0412258 0.000364106 -0.111116)
(0.0146988 0.000399661 -0.116215)
(0.0341016 0.0160103 -0.174538)
(0.0680206 0.023709 -0.267496)
(0.0507717 0.0154405 -0.168481)
(0.00629689 0.0074694 -0.122568)
(0.000646004 0.00028471 -0.0609771)
(0.0615485 0.000173331 -0.0791036)
(0.0478571 0.000315693 -0.0988402)
(0.0234223 0.000363597 -0.0962266)
(0.00804646 0.000391911 -0.0959014)
(0.0165709 0.0157948 -0.131335)
(0.0689463 0.0315094 -0.263626)
(0.0754775 0.0306588 -0.185003)
(0.0167254 0.0204939 -0.122334)
(0.00509436 0.00833702 -0.0999009)
(0.000339213 0.000330021 -0.0512503)
(0.0551972 7.92027e-05 -0.0654984)
(0.0489029 0.000150282 -0.0812228)
(0.0315085 0.000280907 -0.0907148)
(0.0138741 0.000326899 -0.0823369)
(0.00468955 0.000417646 -0.0811724)
(0.00768786 0.0116844 -0.089042)
(0.0563608 0.0292662 -0.232302)
(0.0819075 0.0336767 -0.206659)
(0.0361728 0.0319381 -0.134076)
(0.0115005 0.020756 -0.0975072)
(0.00246197 0.00974076 -0.0848449)
(0.000223711 0.000409798 -0.0442447)
(0.0491751 2.64948e-05 -0.0548746)
(0.0472353 6.37839e-05 -0.0682388)
(0.0360586 0.000120017 -0.0787852)
(0.0203227 0.000217223 -0.0807683)
(0.00845614 0.000310168 -0.0707582)
(0.00296357 0.000454051 -0.0702609)
(0.00328815 0.0069915 -0.0572399)
(0.0392535 0.0197338 -0.174251)
(0.068223 0.0243448 -0.189111)
(0.0480005 0.0263194 -0.143298)
(0.020617 0.0254435 -0.0994721)
(0.00521221 0.0207765 -0.0823339)
(0.00189176 0.0113012 -0.0743372)
(0.000141877 0.000610875 -0.0390783)
(0.0441109 1.89717e-05 -0.0573078)
(0.037987 4.71889e-05 -0.068484)
(0.025386 8.04923e-05 -0.0734228)
(0.0130701 0.000164429 -0.0710865)
(0.00542576 0.000295895 -0.0616415)
(0.00196676 0.000498552 -0.0620216)
(0.00111987 0.00369915 -0.0359969)
(0.0232405 0.00993517 -0.114112)
(0.0467331 0.0125083 -0.140305)
(0.0434486 0.013768 -0.119925)
(0.0251389 0.0154076 -0.0893011)
(0.00827331 0.018674 -0.0767517)
(0.00350743 0.0193335 -0.0707681)
(0.00111832 0.0130878 -0.0671604)
(0.000101183 0.00109532 -0.0352596)
(0.0405225 5.84834e-06 -0.0487429)
(0.0377316 1.24488e-05 -0.0586357)
(0.0289563 2.91093e-05 -0.0662634)
(0.017411 4.94472e-05 -0.0667391)
(0.00861049 0.000115262 -0.0627749)
(0.00362667 0.000269882 -0.0545982)
(0.00136168 0.000514571 -0.0556812)
(0.000199247 0.00170477 -0.0221793)
(0.0119414 0.00365418 -0.0675468)
(0.0271652 0.00479781 -0.0877758)
(0.0297445 0.00500127 -0.0804675)
(0.0216353 0.00559501 -0.0610119)
(0.00882534 0.00750096 -0.0546047)
(0.00440131 0.0115655 -0.0560755)
(0.00179782 0.0157809 -0.0594384)
(0.00075084 0.0141192 -0.061938)
(7.61843e-05 0.0020418 -0.0324703)
(0.0361681 3.07467e-06 -0.050262)
(0.0307234 6.44175e-06 -0.0583763)
(0.0212144 1.54178e-05 -0.0622394)
(0.0119317 2.44549e-05 -0.0601538)
(0.00583697 7.1695e-05 -0.056048)
(0.00251451 0.000207239 -0.0492504)
(0.000968887 0.000495921 -0.0506683)
(0.00519077 0.000821161 -0.0350329)
(-0.000272417 0.000475403 -0.0107113)
(0.0132129 0.00117913 -0.045609)
(0.0158467 0.00122699 -0.0430847)
(0.0132659 0.00127719 -0.032932)
(0.00657977 0.00156829 -0.0273698)
(0.00342536 0.00256302 -0.0287994)
(0.00165503 0.00518955 -0.0346389)
(0.000919793 0.00978943 -0.0440239)
(0.000412714 0.0124781 -0.0544982)
(6.45983e-05 0.00347963 -0.030447)
(0.0339315 3.14497e-07 -0.0431795)
(0.0309876 9.32625e-07 -0.0509386)
(0.0239472 1.98325e-06 -0.056518)
(0.0152417 4.50811e-06 -0.0574745)
(0.00827968 6.65124e-06 -0.0543753)
(0.0040749 2.47538e-05 -0.0508156)
(0.00178961 7.94475e-05 -0.0452601)
(0.00070247 0.000233824 -0.0465753)
(0.00373974 3.66637e-05 -0.0137956)
(0.000929174 -6.02168e-06 -0.00973367)
(-0.000106457 6.49188e-05 -0.00273546)
(0.00477325 4.75423e-05 -0.0130486)
(0.00431839 7.02411e-05 -0.00998166)
(0.00246286 6.89682e-05 -0.00785155)
(0.00133792 0.000100306 -0.00725473)
(0.000633409 0.000223863 -0.00880958)
(0.000416167 0.000608191 -0.0121785)
(0.00024818 0.00165787 -0.0195352)
(0.000160344 0.00592416 -0.0336111)
(5.81297e-05 0.00252526 -0.0289034)
(0.205726 0.000157994 -0.184932)
(0.140188 0.000195651 -0.209384)
(0.175697 0.000801257 -0.387048)
(0.0225893 0.000199656 -0.135007)
(0.111802 0.000212367 -0.120207)
(0.0601102 0.000278764 -0.180317)
(0.112411 0.00307057 -0.335977)
(0.0524235 0.00236452 -0.265853)
(0.00556972 0.000179856 -0.0969279)
(0.0673596 0.000286435 -0.120542)
(0.0308989 0.000278506 -0.144517)
(0.0626396 0.00854744 -0.224229)
(0.055354 0.00743744 -0.280617)
(0.0292091 0.00363598 -0.161316)
(0.00104261 0.000224931 -0.0750943)
(0.0668925 0.000283745 -0.100643)
(0.0411933 0.000291224 -0.111166)
(0.0146685 0.000304215 -0.116185)
(0.0336188 0.0125232 -0.170495)
(0.0662131 0.0177352 -0.264649)
(0.048763 0.0112714 -0.167714)
(0.00569827 0.00571698 -0.122175)
(0.000625111 0.000216642 -0.0608963)
(0.0615481 0.000170071 -0.0791521)
(0.0478378 0.000284968 -0.098894)
(0.0233971 0.000300059 -0.0962829)
(0.008022 0.000297262 -0.0958768)
(0.0162428 0.01389 -0.129427)
(0.0671678 0.0265066 -0.258821)
(0.0725604 0.0246961 -0.181349)
(0.0153627 0.0161208 -0.121172)
(0.00465849 0.00641166 -0.0994524)
(0.000328654 0.000246647 -0.0511736)
(0.0551976 8.70998e-05 -0.0655172)
(0.0488962 0.000156333 -0.0812654)
(0.0314917 0.000267079 -0.0907671)
(0.0138548 0.00027375 -0.082397)
(0.004675 0.000318879 -0.0811625)
(0.00782312 0.012095 -0.0924061)
(0.0563891 0.0288291 -0.236144)
(0.0815715 0.0322186 -0.207231)
(0.0354262 0.0290918 -0.132107)
(0.0108781 0.0170358 -0.0964021)
(0.00228205 0.0075645 -0.0842456)
(0.000215997 0.000282311 -0.0441695)
(0.0491752 3.27225e-05 -0.0548809)
(0.0472337 7.4722e-05 -0.0682533)
(0.0360529 0.000132734 -0.0788194)
(0.0203109 0.000218156 -0.0808151)
(0.00844552 0.000264708 -0.0708278)
(0.00295355 0.00035136 -0.0702793)
(0.00373197 0.00860414 -0.0646451)
(0.0424602 0.0235651 -0.192083)
(0.0728188 0.028568 -0.205003)
(0.0511604 0.0295776 -0.151226)
(0.0212862 0.0256069 -0.100525)
(0.00509889 0.0180571 -0.0813842)
(0.00180952 0.00875039 -0.073387)
(0.000135578 0.000364285 -0.0390036)
(0.0441106 2.54447e-05 -0.0573123)
(0.0379855 5.90735e-05 -0.0684942)
(0.0253821 9.62513e-05 -0.0734466)
(0.0130643 0.000176574 -0.071131)
(0.00541935 0.000260573 -0.0617197)
(0.00195963 0.000397278 -0.0621121)
(0.00153595 0.00540092 -0.0446621)
(0.0285575 0.0149424 -0.140674)
(0.0558002 0.018631 -0.170236)
(0.0513304 0.019886 -0.142702)
(0.0290006 0.0203424 -0.101848)
(0.00915031 0.0213204 -0.0812303)
(0.00361806 0.0182513 -0.0707176)
(0.00108214 0.0103476 -0.0657119)
(9.41722e-05 0.000551465 -0.0351824)
(0.0405224 8.80388e-06 -0.0487438)
(0.0377315 1.84017e-05 -0.0586386)
(0.0289553 4.01644e-05 -0.0662693)
(0.0174093 6.61012e-05 -0.0667553)
(0.0086077 0.000137515 -0.0628164)
(0.00362276 0.000258943 -0.0546832)
(0.00135636 0.00044738 -0.0559417)
(0.000481046 0.00304746 -0.0306536)
(0.0172149 0.00739919 -0.0948772)
(0.0376046 0.00949697 -0.122198)
(0.0403257 0.00981251 -0.110681)
(0.0286269 0.0103107 -0.082472)
(0.0114224 0.01242 -0.0694696)
(0.00532542 0.0160123 -0.0651208)
(0.00198998 0.0173614 -0.0622064)
(0.00075531 0.0120558 -0.0605929)
(6.64134e-05 0.00100785 -0.0323871)
(0.0361681 5.74582e-06 -0.0502625)
(0.0307233 1.14915e-05 -0.0583778)
(0.0212139 2.48214e-05 -0.0622424)
(0.011931 4.08778e-05 -0.0601636)
(0.00583578 0.000100303 -0.0560825)
(0.00251221 0.000242519 -0.0493302)
(0.000965283 0.000472277 -0.0512094)
(0.00938544 0.00274821 -0.0596714)
(-0.000201624 0.00121615 -0.0176419)
(0.0226189 0.00366655 -0.0777497)
(0.0264818 0.00375649 -0.0729708)
(0.021682 0.00373243 -0.0555514)
(0.0106416 0.00435106 -0.0450423)
(0.00530764 0.00625285 -0.0448803)
(0.00241243 0.0102052 -0.0489491)
(0.00119935 0.0143404 -0.0533214)
(0.000449104 0.0131384 -0.056984)
(5.17517e-05 0.00191526 -0.030399)
(0.0339315 1.2215e-06 -0.0431796)
(0.0309876 3.0564e-06 -0.0509388)
(0.0239471 6.0926e-06 -0.0565187)
(0.0152415 1.28952e-05 -0.0574755)
(0.00827948 2.09061e-05 -0.0543806)
(0.00407444 6.41053e-05 -0.0508374)
(0.00178855 0.000190573 -0.0453349)
(0.000700079 0.000464547 -0.0474748)
(0.011529 0.000859109 -0.0420913)
(0.00326624 0.000493654 -0.0291389)
(-0.000150989 0.00040522 -0.00787398)
(0.0143299 0.000937699 -0.0397667)
(0.0127001 0.000954602 -0.030472)
(0.00721823 0.000978356 -0.0236625)
(0.00381137 0.0012723 -0.0214892)
(0.0017644 0.00222677 -0.0247706)
(0.00106921 0.00466029 -0.0309031)
(0.000539277 0.00901167 -0.0402718)
(0.000251172 0.011755 -0.0510681)
(4.30958e-05 0.0033219 -0.029001)
(0.0301643 3.29258e-07 -0.044186)
(0.0254708 1.00902e-06 -0.050503)
(0.0180986 1.78544e-06 -0.0535721)
(0.0109134 3.82227e-06 -0.0528055)
(0.00585624 5.82502e-06 -0.0496605)
(0.00291194 2.26778e-05 -0.0468796)
(0.00129618 7.45095e-05 -0.0424274)
(0.000510883 0.000222903 -0.0443838)
(0.00442336 2.35965e-05 -0.0124234)
(0.00292164 1.2585e-05 -0.0123448)
(0.000497038 4.73236e-05 -0.00743601)
(-6.40134e-05 3.25072e-05 -0.00164497)
(0.00412672 5.27119e-05 -0.00944573)
(0.00255543 4.98933e-05 -0.00713434)
(0.0014234 5.77167e-05 -0.00590202)
(0.000656977 8.41242e-05 -0.00611255)
(0.000388364 0.000200178 -0.00778457)
(0.000225737 0.000557412 -0.0111103)
(0.000143741 0.00154424 -0.0182159)
(8.18104e-05 0.00565251 -0.0320001)
(3.79687e-05 0.00244437 -0.0279385)
(0.205701 0.000121961 -0.184848)
(0.140176 0.000149519 -0.209394)
(0.175831 0.000601377 -0.386742)
(0.022562 0.000151752 -0.134941)
(0.111792 0.000166834 -0.120228)
(0.0600987 0.000209392 -0.180313)
(0.112635 0.00224181 -0.3364)
(0.0524566 0.00174957 -0.265643)
(0.00553598 0.000140514 -0.0968566)
(0.0673508 0.000222994 -0.12058)
(0.0308661 0.00021012 -0.144487)
(0.062555 0.00625465 -0.223797)
(0.0550596 0.00540063 -0.280698)
(0.0286612 0.00272686 -0.161068)
(0.00102376 0.000179022 -0.0750278)
(0.0668895 0.000239102 -0.100686)
(0.0411674 0.000231048 -0.111196)
(0.0146446 0.000232513 -0.116158)
(0.033333 0.00964445 -0.167538)
(0.0649167 0.0131041 -0.262965)
(0.0471984 0.00829847 -0.167375)
(0.00519379 0.00442961 -0.121883)
(0.000606424 0.000168924 -0.0608284)
(0.0615475 0.00016091 -0.0791955)
(0.0478206 0.000248886 -0.0989341)
(0.0233758 0.000244527 -0.0963191)
(0.00800151 0.000225383 -0.0958498)
(0.0159126 0.0116165 -0.126754)
(0.0654934 0.0212436 -0.254147)
(0.0697199 0.0191876 -0.178448)
(0.0140606 0.0125538 -0.120429)
(0.00422129 0.0049795 -0.0991306)
(0.000319552 0.000191183 -0.0511081)
(0.055198 9.16533e-05 -0.0655371)
(0.0488894 0.000155242 -0.0813056)
(0.0314753 0.000243732 -0.0908082)
(0.0138372 0.000225843 -0.0824365)
(0.00466272 0.000242033 -0.0811437)
(0.00770157 0.0114797 -0.0929095)
(0.0553127 0.0261459 -0.234886)
(0.0796835 0.0285796 -0.204338)
(0.0338341 0.0250403 -0.129303)
(0.0100752 0.0136686 -0.095614)
(0.00209018 0.00594606 -0.083875)
(0.000209341 0.000211015 -0.0441039)
(0.0491753 3.83296e-05 -0.0548885)
(0.0472317 8.28137e-05 -0.0682697)
(0.0360465 0.000138747 -0.078854)
(0.0202982 0.00020804 -0.0808528)
(0.00843545 0.000221133 -0.0708768)
(0.00294491 0.000266689 -0.0702705)
(0.00392316 0.00943665 -0.0690754)
(0.0435395 0.0249795 -0.201093)
(0.0742233 0.0299332 -0.211895)
(0.0521082 0.0301272 -0.153303)
(0.0211044 0.0238807 -0.0994837)
(0.00484322 0.0150719 -0.080536)
(0.00170382 0.006828 -0.0728691)
(0.000130884 0.000252785 -0.0389377)
(0.0441103 3.16754e-05 -0.0573181)
(0.0379836 6.90455e-05 -0.0685066)
(0.0253772 0.000106831 -0.0734724)
(0.0130576 0.00017709 -0.0711688)
(0.00541306 0.000220816 -0.0617788)
(0.00195339 0.000306822 -0.0621279)
(0.00183994 0.00686756 -0.0515412)
(0.0321097 0.0190273 -0.16013)
(0.0615706 0.0235823 -0.191042)
(0.0564657 0.0246662 -0.157597)
(0.0314263 0.0234695 -0.108741)
(0.0095578 0.0217399 -0.0822319)
(0.00357213 0.0159327 -0.0699595)
(0.00102474 0.00808902 -0.064872)
(8.98643e-05 0.000330176 -0.035115)
(0.0405224 1.19548e-05 -0.0487452)
(0.0377311 2.44636e-05 -0.0586427)
(0.0289538 5.01975e-05 -0.0662772)
(0.0174069 7.89628e-05 -0.0667745)
(0.00860421 0.000147179 -0.0628541)
(0.00361877 0.000227197 -0.0547519)
(0.00135153 0.000355908 -0.0560224)
(0.000744225 0.00452092 -0.0384008)
(0.0219066 0.0117725 -0.119394)
(0.0463511 0.0148932 -0.152149)
(0.0490452 0.0152539 -0.136272)
(0.034238 0.0152159 -0.0997504)
(0.0134045 0.016624 -0.0793999)
(0.00588162 0.0183603 -0.069065)
(0.00203692 0.0165082 -0.0622299)
(0.000727353 0.00959617 -0.0592828)
(6.12747e-05 0.000508198 -0.0323158)
(0.036168 8.60987e-06 -0.0502633)
(0.0307231 1.67671e-05 -0.0583802)
(0.0212132 3.40847e-05 -0.062247)
(0.0119299 5.46487e-05 -0.0601772)
(0.00583406 0.000119453 -0.0561191)
(0.00250956 0.000232087 -0.0494067)
(0.00096153 0.000410188 -0.0514485)
(0.0138219 0.00586909 -0.0843983)
(-6.9642e-05 0.0022343 -0.0244547)
(0.0319229 0.00757621 -0.109628)
(0.0366117 0.00765826 -0.102197)
(0.0294112 0.0073557 -0.0773669)
(0.0142787 0.00811723 -0.0609481)
(0.00682603 0.0103968 -0.0572205)
(0.00292377 0.0142211 -0.0569726)
(0.00132318 0.0158641 -0.0558741)
(0.000435456 0.0112758 -0.0557426)
(4.44321e-05 0.000944835 -0.0303203)
(0.0339315 2.45494e-06 -0.0431798)
(0.0309876 5.53382e-06 -0.0509393)
(0.023947 1.04871e-05 -0.0565199)
(0.0152411 2.07559e-05 -0.0574779)
(0.00827905 3.50754e-05 -0.0543893)
(0.00407365 8.95826e-05 -0.0508686)
(0.00178693 0.000222634 -0.0454082)
(0.00069747 0.000441911 -0.0479823)
(0.0199018 0.00289918 -0.0719707)