/*--------------------------------*- C++ -*----------------------------------*\
  =========                 |
  \\      /  F ield         | OpenFOAM: The Open Source CFD Toolbox
   \\    /   O peration     | Website:  https://openfoam.org
    \\  /    A nd           | Version:  7
     \\/     M anipulation  |
\*---------------------------------------------------------------------------*/
FoamFile
{
    version     2.0;
    format      ascii;
    class       surfaceScalarField;
    location    "118";
    object      phi;
}
// * * * * * * * * * * * * * * * * * * * * * * * * * * * * * * * * * * * * * //

dimensions      [0 3 -1 0 0 0 0];

internalField   nonuniform List<scalar> 
125306
(
-8.98447e-17
-1.11967e-14
3.11165e-11
-1.35386e-16
-1.24223e-14
3.45238e-11
-1.13294e-16
-2.53249e-14
3.93302e-11
-7.1564e-17
-2.67693e-14
3.11434e-11
-1.84526e-16
-1.37602e-14
3.82422e-11
-1.73202e-16
-2.80997e-14
4.36368e-11
-1.0162e-16
-2.9698e-14
3.45536e-11
-1.47542e-16
-4.30631e-14
4.94865e-11
-8.9424e-17
-6.05587e-14
3.9364e-11
-1.13361e-16
-5.20034e-14
3.11955e-11
-2.09791e-16
-1.52143e-14
4.22848e-11
-2.33563e-16
-3.11256e-14
4.83367e-11
-1.33118e-16
-3.2896e-14
3.82751e-11
-2.11705e-16
-4.77812e-14
5.49053e-11
-1.29391e-16
-6.71898e-14
4.36744e-11
-1.75477e-16
-5.76948e-14
3.46113e-11
-1.93306e-16
-6.51691e-14
6.19126e-11
-1.14782e-16
-1.02995e-13
4.9529e-11
-1.55597e-16
-1.1767e-13
3.94299e-11
-1.85191e-16
-9.35698e-14
3.12892e-11
-2.33887e-16
-1.67901e-14
4.66617e-11
-2.70214e-16
-3.44174e-14
5.34464e-11
-1.56223e-16
-3.63728e-14
4.23212e-11
-3.02248e-16
-5.2927e-14
6.08188e-11
-1.69114e-16
-7.4427e-14
4.83783e-11
-2.27252e-16
-6.39096e-14
3.83391e-11
-2.54693e-16
-7.23058e-14
6.86921e-11
-1.66153e-16
-1.14276e-13
5.49524e-11
-2.32285e-16
-1.30553e-13
4.37473e-11
-2.78829e-16
-1.03809e-13
3.47152e-11
-1.79515e-16
-9.23841e-14
7.69112e-11
-1.67811e-16
-1.55902e-13
6.19656e-11
-1.95112e-16
-2.00135e-13
4.96117e-11
-2.44749e-16
-2.1171e-13
3.95483e-11
-2.52998e-16
-1.59644e-13
3.14492e-11
-2.49777e-16
-1.84861e-14
5.13774e-11
-2.95873e-16
-3.79795e-14
5.89787e-11
-1.78781e-16
-4.0138e-14
4.67018e-11
-3.37415e-16
-5.8522e-14
6.7248e-11
-2.00965e-16
-8.22961e-14
5.34924e-11
-2.73908e-16
-7.06666e-14
4.23919e-11
-3.76428e-16
-8.00903e-14
7.60905e-11
-2.21114e-16
-1.26586e-13
6.08711e-11
-2.96426e-16
-1.44614e-13
4.84591e-11
-3.61152e-16
-1.14989e-13
3.84542e-11
-2.45882e-16
-1.02504e-13
8.5333e-11
-2.30112e-16
-1.72975e-13
6.87508e-11
-2.91571e-16
-2.2205e-13
5.5044e-11
-3.6353e-16
-2.34891e-13
4.38785e-11
-3.87367e-16
-1.77114e-13
3.48925e-11
-2.50179e-16
-1.25496e-13
9.47008e-11
-2.01168e-16
-2.21133e-13
7.69766e-11
-2.29881e-16
-3.02887e-13
6.20686e-11
-3.09782e-16
-3.60079e-13
4.97604e-11
-3.46625e-16
-3.61229e-13
3.97502e-11
-3.43377e-16
-2.5935e-13
3.17089e-11
-2.7546e-16
-2.03114e-14
5.64351e-11
-3.29837e-16
-4.18209e-14
6.49392e-11
-1.97815e-16
-4.41946e-14
5.14216e-11
-3.8413e-16
-6.45775e-14
7.42088e-11
-2.28808e-16
-9.08162e-14
5.90294e-11
-3.12099e-16
-7.79821e-14
4.67799e-11
-4.0402e-16
-8.85527e-14
8.4134e-11
-2.60491e-16
-1.39971e-13
6.73057e-11
-3.52424e-16
-1.59901e-13
5.35817e-11
-4.30939e-16
-1.27144e-13
4.25191e-11
-4.00195e-16
-1.13545e-13
9.45238e-11
-3.07735e-16
-1.91606e-13
7.61556e-11
-3.71704e-16
-2.45965e-13
6.09725e-11
-4.66304e-16
-2.6019e-13
4.86044e-11
-5.00452e-16
-1.96191e-13
3.86505e-11
-3.18236e-16
-1.39242e-13
1.05071e-10
-2.83812e-16
-2.45353e-13
8.54055e-11
-3.54768e-16
-3.36057e-13
6.8865e-11
-4.62287e-16
-3.9951e-13
5.52088e-11
-5.13768e-16
-4.00779e-13
4.41024e-11
-5.19465e-16
-2.8773e-13
3.51804e-11
-2.58222e-16
-1.64928e-13
1.15347e-10
-2.65972e-16
-3.0044e-13
9.47803e-11
-3.05464e-16
-4.29606e-13
7.71036e-11
-4.03984e-16
-5.44976e-13
6.22539e-11
-4.34731e-16
-6.14374e-13
5.0014e-11
-4.69755e-16
-5.86828e-13
4.00782e-11
-4.20351e-16
-4.01542e-13
3.21108e-11
-2.79539e-16
-2.22458e-14
6.18258e-11
-3.40592e-16
-4.59352e-14
7.13319e-11
-2.1777e-16
-4.85475e-14
5.64837e-11
-4.06281e-16
-7.11046e-14
8.17086e-11
-2.56784e-16
-9.9997e-14
6.4995e-11
-3.43267e-16
-8.58639e-14
5.15075e-11
-4.84182e-16
-9.77141e-14
9.28428e-11
-2.99134e-16
-1.54462e-13
7.42725e-11
-3.9918e-16
-1.76453e-13
5.91279e-11
-4.89792e-16
-1.40306e-13
4.69202e-11
-4.37415e-16
-1.25549e-13
1.04516e-10
-3.48365e-16
-2.11861e-13
8.4206e-11
-4.42648e-16
-2.71964e-13
6.74178e-11
-5.53927e-16
-2.87696e-13
5.37423e-11
-6.0125e-16
-2.16932e-13
4.27361e-11
-5.12444e-16
-1.54239e-13
1.16387e-10
-3.88628e-16
-2.7178e-13
9.4604e-11
-4.52322e-16
-3.72253e-13
7.6282e-11
-5.93153e-16
-4.4254e-13
6.1155e-11
-6.53955e-16
-4.43945e-13
4.88523e-11
-6.70675e-16
-3.1872e-13
3.89694e-11
-3.39739e-16
-1.82995e-13
1.27977e-10
-3.66795e-16
-3.33348e-13
1.05159e-10
-4.58826e-16
-4.76655e-13
8.55462e-11
-5.94207e-16
-6.04657e-13
6.90703e-11
-6.4864e-16
-6.81649e-13
5.54899e-11
-6.90348e-16
-6.51081e-13
4.44659e-11
-6.35354e-16
-4.45482e-13
3.56261e-11
-4.16148e-16
-2.10754e-13
1.38648e-10
-2.85075e-16
-3.94932e-13
1.15441e-10
-3.78032e-16
-5.83599e-13
9.49347e-11
-4.94844e-16
-7.72932e-13
7.7332e-11
-5.35382e-16
-9.29778e-13
6.25699e-11
-5.90217e-16
-9.98044e-13
5.04258e-11
-5.89697e-16
-9.08568e-13
4.05858e-11
-4.73512e-16
-5.93354e-13
3.27047e-11
-2.92756e-16
-2.43054e-14
6.75316e-11
-3.65599e-16
-5.03249e-14
7.81456e-11
-2.29082e-16
-5.31838e-14
6.1879e-11
-4.34019e-16
-7.81019e-14
8.97521e-11
-2.75489e-16
-1.09842e-13
7.13932e-11
-3.66483e-16
-9.43167e-14
5.6578e-11
-4.94575e-16
-1.07585e-13
1.02226e-10
-3.28192e-16
-1.70076e-13
8.17787e-11
-4.36098e-16
-1.94285e-13
6.51035e-11
-5.37407e-16
-1.54486e-13
5.16621e-11
-5.56752e-16
-1.38545e-13
1.15334e-10
-4.01118e-16
-2.33792e-13
9.29221e-11
-5.00907e-16
-3.00115e-13
7.43962e-11
-6.26782e-16
-3.17477e-13
5.93051e-11
-6.84075e-16
-2.39388e-13
4.71597e-11
-5.36632e-16
-1.70542e-13
1.2869e-10
-4.42688e-16
-3.00512e-13
1.04605e-10
-5.48054e-16
-4.11606e-13
8.43457e-11
-7.04333e-16
-4.89323e-13
6.76196e-11
-7.76246e-16
-4.90875e-13
5.40164e-11
-7.99834e-16
-3.52412e-13
4.30887e-11
-5.66024e-16
-2.02708e-13
1.41761e-10
-5.02867e-16
-3.69252e-13
1.16485e-10
-5.84581e-16
-5.27994e-13
9.47599e-11
-7.6293e-16
-6.69782e-13
7.65094e-11
-8.24221e-16
-7.55066e-13
6.14663e-11
-8.7726e-16
-7.21206e-13
4.9255e-11
-8.16568e-16
-4.93462e-13
3.9463e-11
-5.25966e-16
-2.33845e-13
1.5383e-10
-4.01923e-16
-4.38194e-13
1.28082e-10
-5.6647e-16
-6.47519e-13
1.0533e-10
-7.3265e-16
-8.57582e-13
8.57994e-11
-8.10998e-16
-1.0316e-12
6.94205e-11
-8.73357e-16
-1.10733e-12
5.59464e-11
-8.57387e-16
-1.00805e-12
4.50288e-11
-7.04926e-16
-6.58284e-13
3.62846e-11
-3.16351e-16
-2.61861e-13
1.64029e-10
-1.80415e-16
-5.04438e-13
1.38758e-10
-4.65733e-16
-7.67061e-13
1.15625e-10
-6.09543e-16
-1.04991e-12
9.52122e-11
-7.02044e-16
-1.3186e-12
7.77215e-11
-7.48816e-16
-1.51033e-12
6.30829e-11
-7.39367e-16
-1.54517e-12
5.10631e-11
-6.79444e-16
-1.34255e-12
4.13357e-11
-5.01671e-16
-8.39787e-13
3.3545e-11
-2.74187e-16
-2.64527e-14
7.3533e-11
-3.56987e-16
-5.49623e-14
8.53574e-11
-2.40022e-16
-5.80946e-14
6.75897e-11
-4.44148e-16
-8.55604e-14
9.83252e-11
-2.94962e-16
-1.20337e-13
7.82127e-11
-3.84494e-16
-1.03327e-13
6.19823e-11
-5.34675e-16
-1.18172e-13
1.12289e-10
-3.54444e-16
-1.86822e-13
8.98291e-11
-4.66163e-16
-2.13411e-13
7.15124e-11
-5.74564e-16
-1.69695e-13
5.67477e-11
-5.71081e-16
-1.52549e-13
1.2699e-10
-4.27493e-16
-2.57421e-13
1.02313e-10
-5.49257e-16
-3.30444e-13
8.19149e-11
-6.85878e-16
-3.49563e-13
6.52986e-11
-7.51306e-16
-2.63582e-13
5.19257e-11
-7.03636e-16
-1.88194e-13
1.42011e-10
-5.15258e-16
-3.3162e-13
1.15432e-10
-6.21041e-16
-4.54213e-13
9.30763e-11
-7.95561e-16
-5.39976e-13
7.46188e-11
-8.78079e-16
-5.41686e-13
5.96075e-11
-9.05866e-16
-3.88892e-13
4.75487e-11
-6.02181e-16
-2.2414e-13
1.56747e-10
-5.60072e-16
-4.08285e-13
1.28798e-10
-6.97525e-16
-5.8381e-13
1.04777e-10
-8.97126e-16
-7.40585e-13
8.45971e-11
-9.8134e-16
-8.34884e-13
6.79637e-11
-1.03563e-15
-7.97445e-13
5.44616e-11
-9.68569e-16
-5.45628e-13
4.36345e-11
-8.66956e-16
-2.59032e-13
1.70398e-10
-5.38365e-16
-4.8539e-13
1.41877e-10
-7.25629e-16
-7.17263e-13
1.16674e-10
-9.43272e-16
-9.4995e-13
9.50403e-11
-1.0314e-15
-1.14271e-12
7.68973e-11
-1.11023e-15
-1.2266e-12
6.19719e-11
-1.07946e-15
-1.11662e-12
4.98784e-11
-8.95238e-16
-7.29183e-13
4.01924e-11
-4.1916e-16
-2.90555e-13
1.81991e-10
-3.01509e-16
-5.59703e-13
1.53952e-10
-6.93683e-16
-8.51085e-13
1.28286e-10
-9.00712e-16
-1.1649e-12
1.05637e-10
-1.04495e-15
-1.46301e-12
8.62311e-11
-1.10778e-15
-1.67573e-12
6.99893e-11
-1.08141e-15
-1.71437e-12
5.66531e-11
-9.68164e-16
-1.48955e-12
4.58604e-11
-7.26044e-16
-9.31684e-13
3.72165e-11
-6.01036e-16
-3.16301e-13
1.90455e-10
-3.43556e-16
-6.26903e-13
1.64152e-10
-5.8299e-16
-9.79769e-13
1.38971e-10
-7.23613e-16
-1.37976e-12
1.15956e-10
-8.63317e-16
-1.79084e-12
9.56853e-11
-9.4114e-16
-2.14162e-12
7.83538e-11
-9.21404e-16
-2.33801e-12
6.38767e-11
-8.55241e-16
-2.28304e-12
5.20045e-11
-7.47687e-16
-1.90006e-12
4.23967e-11
-4.6594e-16
-1.14361e-12
3.4689e-11
-2.76225e-16
-2.87106e-14
7.97898e-11
-3.56301e-16
-5.98444e-14
9.29431e-11
-2.38732e-16
-6.32544e-14
7.35963e-11
-4.44929e-16
-9.34525e-14
1.07399e-10
-3.01046e-16
-1.31443e-13
8.54308e-11
-3.95631e-16
-1.12863e-13
6.77025e-11
-5.40273e-16
-1.29458e-13
1.23015e-10
-3.71539e-16
-2.04671e-13
9.84096e-11
-4.86878e-16
-2.33796e-13
7.83432e-11
-6.00788e-16
-1.85905e-13
6.21683e-11
-6.49682e-16
-1.67565e-13
1.39491e-10
-4.57591e-16
-2.82764e-13
1.12385e-10
-5.86453e-16
-3.62974e-13
8.99787e-11
-7.31003e-16
-3.83977e-13
7.17267e-11
-8.00555e-16
-2.89531e-13
5.70373e-11
-6.95039e-16
-2.07213e-13
1.56363e-10
-5.44429e-16
-3.65136e-13
1.27098e-10
-6.86449e-16
-5.00119e-13
1.02483e-10
-8.69111e-16
-5.94549e-13
8.21599e-11
-9.57651e-16
-5.96431e-13
6.56315e-11
-9.8955e-16
-4.28196e-13
5.2354e-11
-8.11731e-16
-2.47345e-13
1.72972e-10
-6.5313e-16
-4.50545e-13
1.4213e-10
-7.86499e-16
-6.44242e-13
1.15622e-10
-1.01089e-15
-8.17243e-13
9.33537e-11
-1.10796e-15
-9.21305e-13
7.49986e-11
-1.16516e-15
-8.79991e-13
6.00988e-11
-1.08845e-15
-6.02108e-13
4.81509e-11
-8.79387e-16
-2.86413e-13
1.88411e-10
-6.11554e-16
-5.36698e-13
1.56875e-10
-8.643e-16
-7.93088e-13
1.29008e-10
-1.11304e-15
-1.05037e-12
1.05087e-10
-1.23663e-15
-1.26351e-12
8.50259e-11
-1.31247e-15
-1.35627e-12
6.85228e-11
-1.2626e-15
-1.23466e-12
5.51508e-11
-1.04797e-15
-8.06267e-13
4.44409e-11
-6.69031e-16
-3.21855e-13
2.01592e-10
-3.49981e-16
-6.19992e-13
1.70533e-10
-8.94414e-16
-9.42757e-13
1.42103e-10
-1.15922e-15
-1.29037e-12
1.17015e-10
-1.33008e-15
-1.62059e-12
9.55184e-11
-1.4088e-15
-1.85622e-12
7.75272e-11
-1.36349e-15
-1.89902e-12
6.27546e-11
-1.19953e-15
-1.64998e-12
5.07994e-11
-8.97823e-16
-1.03203e-12
4.12246e-11
-7.42371e-16
-3.5097e-13
2.1131e-10
-5.02716e-16
-6.95598e-13
1.82127e-10
-8.54772e-16
-1.08711e-12
1.54188e-10
-1.07429e-15
-1.5309e-12
1.28652e-10
-1.28651e-15
-1.98699e-12
1.06162e-10
-1.39014e-15
-2.37617e-12
8.6932e-11
-1.35584e-15
-2.59405e-12
7.08694e-11
-1.22758e-15
-2.53304e-12
5.7697e-11
-1.02188e-15
-2.1081e-12
4.7037e-11
-6.24513e-16
-1.26875e-12
3.84854e-11
-3.64373e-16
-3.7006e-13
2.16376e-10
-1.65731e-16
-7.56827e-13
1.90585e-10
-6.34858e-16
-1.21729e-12
1.6439e-10
-8.08871e-16
-1.7619e-12
1.39354e-10
-1.059e-15
-2.3529e-12
1.16519e-10
-1.1584e-15
-2.90793e-12
9.64528e-11
-1.16255e-15
-3.31453e-12
7.93314e-11
-1.08286e-15
-3.45389e-12
6.50486e-11
-9.24279e-16
-3.23064e-12
5.3336e-11
-7.41393e-16
-2.58726e-12
4.38411e-11
-3.768e-16
-1.50628e-12
3.61957e-11
-2.53416e-16
-3.10241e-14
8.62542e-11
-3.40247e-16
-6.49309e-14
1.00851e-10
-2.40185e-16
-6.86389e-14
7.98584e-11
-4.3944e-16
-1.01754e-13
1.16944e-10
-3.05418e-16
-1.43125e-13
9.30229e-11
-4.02927e-16
-1.22894e-13
7.37192e-11
-5.45773e-16
-1.41401e-13
1.34368e-10
-3.80843e-16
-2.23561e-13
1.07492e-10
-5.02248e-16
-2.55373e-13
8.55733e-11
-6.1715e-16
-2.03063e-13
6.79056e-11
-6.43694e-16
-1.83572e-13
1.52816e-10
-4.72137e-16
-3.09776e-13
1.2312e-10
-6.14304e-16
-3.97645e-13
9.85735e-11
-7.63346e-16
-4.20656e-13
7.8578e-11
-8.37935e-16
-3.1719e-13
6.24855e-11
-8.08796e-16
-2.2761e-13
1.71756e-10
-5.85833e-16
-4.01082e-13
1.3961e-10
-7.33901e-16
-5.49354e-13
1.12571e-10
-9.24761e-16
-6.5308e-13
9.02479e-11
-1.02147e-15
-6.55147e-13
7.20924e-11
-1.05048e-15
-4.70351e-13
5.75077e-11
-8.08003e-16
-2.72348e-13
1.90452e-10
-6.77492e-16
-4.96075e-13
1.56494e-10
-8.63654e-16
-7.09352e-13
1.27307e-10
-1.09845e-15
-8.99837e-13
1.02788e-10
-1.21282e-15
-1.01442e-12
8.2578e-11
-1.26574e-15
-9.68927e-13
6.61724e-11
-1.1783e-15
-6.62962e-13
5.30171e-11
-1.15962e-15
-3.16057e-13
2.07914e-10
-7.09194e-16
-5.92249e-13
1.73113e-10
-9.77061e-16
-8.75183e-13
1.42361e-10
-1.25703e-15
-1.1591e-12
1.15964e-10
-1.39435e-15
-1.3943e-12
9.38269e-11
-1.47457e-15
-1.49666e-12
7.56154e-11
-1.4066e-15
-1.36246e-12
6.08593e-11
-1.16054e-15
-8.89728e-13
4.90408e-11
-7.15487e-16
-3.55886e-13
2.22902e-10
-4.70076e-16
-6.85539e-13
1.8856e-10
-1.06002e-15
-1.04242e-12
1.57125e-10
-1.36549e-15
-1.42678e-12
1.29384e-10
-1.57625e-15
-1.7919e-12
1.05615e-10
-1.66232e-15
-2.05244e-12
8.57223e-11
-1.59685e-15
-2.09976e-12
6.93881e-11
-1.38148e-15
-1.8244e-12
5.61691e-11
-1.01584e-15
-1.14113e-12
4.55821e-11
-1.20456e-15
-3.88776e-13
2.34069e-10
-6.28586e-16
-7.70526e-13
2.01743e-10
-1.1184e-15
-1.20421e-12
1.70795e-10
-1.3739e-15
-1.69579e-12
1.42509e-10
-1.64281e-15
-2.201e-12
1.17596e-10
-1.76812e-15
-2.6321e-12
9.62947e-11
-1.71082e-15
-2.87345e-12
7.8502e-11
-1.52477e-15
-2.80587e-12
6.39108e-11
-1.22376e-15
-2.33515e-12
5.21027e-11
-7.15658e-16
-1.4054e-12
4.26301e-11
-4.71421e-16
-4.10631e-13
2.40069e-10
-3.07926e-16
-8.39775e-13
2.11455e-10
-9.42168e-16
-1.35068e-12
1.82391e-10
-1.22036e-15
-1.95493e-12
1.54613e-10
-1.57199e-15
-2.61064e-12
1.29277e-10
-1.7122e-15
-3.22643e-12
1.07013e-10
-1.7054e-15
-3.67753e-12
8.8016e-11
-1.5554e-15
-3.83214e-12
7.2169e-11
-1.27742e-15
-3.58441e-12
5.91736e-11
-9.32438e-16
-2.87055e-12
4.8639e-11
-4.02796e-16
-1.67111e-12
4.01566e-11
-3.30303e-16
-4.18105e-13
2.39835e-10
-3.89129e-16
-8.85423e-13
2.16505e-10
-7.59905e-16
-1.46933e-12
1.90838e-10
-9.69238e-16
-2.1883e-12
1.64818e-10
-1.28009e-15
-3.00347e-12
1.40006e-10
-1.40988e-15
-3.8191e-12
1.17432e-10
-1.43416e-15
-4.49884e-12
9.76386e-11
-1.35241e-15
-4.89484e-12
8.07738e-11
-1.15076e-15
-4.88609e-12
6.67053e-11
-9.22061e-16
-4.3982e-12
5.51479e-11
-6.77747e-16
-3.40735e-12
4.57428e-11
-1.98876e-16
-1.93086e-12
3.81268e-11
-2.57697e-16
-3.34107e-14
9.28649e-11
-3.29255e-16
-7.01882e-14
1.09022e-10
-2.31953e-16
-7.41968e-14
8.63284e-11
-4.23999e-16
-1.10408e-13
1.26894e-10
-3.01916e-16
-1.55303e-13
1.00938e-10
-4.03266e-16
-1.33351e-13
7.99918e-11
-5.39553e-16
-1.53966e-13
1.46309e-10
-3.84228e-16
-2.43431e-13
1.17044e-10
-5.09739e-16
-2.78069e-13
9.31781e-11
-6.23194e-16
-2.2111e-13
7.39403e-11
-6.74469e-16
-2.00513e-13
1.66919e-10
-4.81946e-16
-3.38366e-13
1.34482e-10
-6.33129e-16
-4.34344e-13
1.07671e-10
-7.82611e-16
-4.59479e-13
8.58298e-11
-8.59526e-16
-3.46463e-13
6.82521e-11
-7.84453e-16
-2.49352e-13
1.88162e-10
-5.95136e-16
-4.39395e-13
1.52945e-10
-7.70953e-16
-6.0183e-13
1.23324e-10
-9.64202e-16
-7.15465e-13
9.88683e-11
-1.06378e-15
-7.17729e-13
7.89786e-11
-1.09141e-15
-5.15281e-13
6.30008e-11
-9.80532e-16
-2.99163e-13
2.09201e-10
-7.27322e-16
-5.44907e-13
1.719e-10
-9.20237e-16
-7.79183e-13
1.3984e-10
-1.16597e-15
-9.88419e-13
1.12907e-10
-1.29062e-15
-1.11428e-12
9.07071e-11
-1.3407e-15
-1.06431e-12
7.26864e-11
-1.23695e-15
-7.28227e-13
5.8236e-11
-1.09919e-15
-3.47993e-13
2.28926e-10
-7.46567e-16
-6.52097e-13
1.90608e-10
-1.07081e-15
-9.63634e-13
1.56749e-10
-1.36626e-15
-1.27624e-12
1.27684e-10
-1.53071e-15
-1.53522e-12
1.03309e-10
-1.60265e-15
-1.64792e-12
8.32571e-11
-1.51165e-15
-1.50016e-12
6.70097e-11
-1.23418e-15
-9.7965e-13
5.39968e-11
-9.79252e-16
-3.92731e-13
2.45975e-10
-5.38338e-16
-7.56506e-13
2.08078e-10
-1.203e-15
-1.15033e-12
1.73389e-10
-1.54106e-15
-1.57447e-12
1.42777e-10
-1.77167e-15
-1.97739e-12
1.16548e-10
-1.86382e-15
-2.2649e-12
9.45953e-11
-1.77767e-15
-2.31711e-12
7.65703e-11
-1.51282e-15
-2.01325e-12
6.19829e-11
-1.08038e-15
-1.25925e-12
5.03001e-11
-1.20024e-15
-4.29875e-13
2.58813e-10
-7.38281e-16
-8.51983e-13
2.23069e-10
-1.30538e-15
-1.33151e-12
1.88849e-10
-1.62573e-15
-1.87506e-12
1.57573e-10
-1.94822e-15
-2.43368e-12
1.30026e-10
-2.08341e-15
-2.91035e-12
1.06474e-10
-2.00849e-15
-3.1772e-12
8.68001e-11
-1.75718e-15
-3.10248e-12
7.06664e-11
-1.35638e-15
-2.58199e-12
5.76101e-11
-7.38023e-16
-1.55396e-12
4.71361e-11
-7.50369e-16
-4.54867e-13
2.65926e-10
-2.91689e-16
-9.30239e-13
2.34229e-10
-1.2201e-15
-1.49618e-12
2.02035e-10
-1.53684e-15
-2.16551e-12
1.71265e-10
-2.01219e-15
-2.89184e-12
1.432e-10
-2.17841e-15
-3.57395e-12
1.18538e-10
-2.1491e-15
-4.07364e-12
9.74953e-11
-1.93543e-15
-4.24488e-12
7.99414e-11
-1.53727e-15
-3.97048e-12
6.55464e-11
-1.02851e-15
-3.17972e-12
5.38772e-11
-3.3627e-16
-1.85109e-12
4.44811e-11
-4.29243e-16
-4.63953e-13
2.66097e-10
-5.71802e-16
-9.8249e-13
2.40212e-10
-1.1014e-15
-1.63038e-12
2.11735e-10
-1.4443e-15
-2.42809e-12
1.82864e-10
-1.89359e-15
-3.33253e-12
1.55335e-10
-2.08109e-15
-4.23745e-12
1.30288e-10
-2.10549e-15
-4.9916e-12
1.08327e-10
-1.94482e-15
-5.43094e-12
8.96154e-11
-1.60253e-15
-5.42119e-12
7.40062e-11
-1.17632e-15
-4.87984e-12
6.11832e-11
-6.96521e-16
-3.78043e-12
5.07484e-11
1.84149e-17
-2.14216e-12
4.22985e-11
-3.10404e-16
-4.54543e-13
2.58678e-10
-4.63591e-16
-1.00023e-12
2.3995e-10
-6.99023e-16
-1.71826e-12
2.16754e-10
-9.99183e-16
-2.63998e-12
1.91291e-10
-1.44519e-15
-3.72818e-12
1.65544e-10
-1.65689e-15
-4.87207e-12
1.41061e-10
-1.75489e-15
-5.9049e-12
1.18839e-10
-1.66939e-15
-6.64002e-12
9.93854e-11
-1.46045e-15
-6.92105e-12
8.28102e-11
-1.16587e-15
-6.6492e-12
6.89574e-11
-8.32881e-16
-5.79051e-12
5.75319e-11
-5.10232e-16
-4.36697e-12
4.81795e-11
8.96787e-17
-2.42436e-12
4.0551e-11
-2.47603e-16
-3.58039e-14
9.95457e-11
-3.20912e-16
-7.55622e-14
1.17378e-10
-2.2772e-16
-7.98857e-14
9.29447e-11
-4.08166e-16
-1.19348e-13
1.37175e-10
-2.95795e-16
-1.67885e-13
1.09116e-10
-3.99015e-16
-1.44155e-13
8.64725e-11
-5.18658e-16
-1.67065e-13
1.58758e-10
-3.80012e-16
-2.64145e-13
1.27003e-10
-5.10635e-16
-3.0173e-13
1.01106e-10
-6.20222e-16
-2.39924e-13
8.02317e-11
-6.59791e-16
-2.18335e-13
1.81753e-10
-4.83128e-16
-3.68438e-13
1.46434e-10
-6.42413e-16
-4.72944e-13
1.17239e-10
-7.89761e-16
-5.00314e-13
9.34573e-11
-8.71767e-16
-3.77257e-13
7.43176e-11
-8.47389e-16
-2.72363e-13
2.05527e-10
-6.08208e-16
-4.79946e-13
1.6706e-10
-7.9395e-16
-6.57373e-13
1.34705e-10
-9.87239e-16
-7.81495e-13
1.07993e-10
-1.09348e-15
-7.83971e-13
8.62673e-11
-1.1111e-15
-5.62837e-13
6.8815e-11
-9.41515e-16
-3.27745e-13
2.29184e-10
-7.28909e-16
-5.96952e-13
1.8832e-10
-9.64425e-16
-8.53612e-13
1.53197e-10
-1.21216e-15
-1.08283e-12
1.23692e-10
-1.34743e-15
-1.22072e-12
9.93714e-11
-1.38809e-15
-1.16598e-12
7.96293e-11
-1.26923e-15
-7.97791e-13
6.37987e-11
-1.31444e-15
-3.82245e-13
2.51462e-10
-8.08906e-16
-7.16284e-13
2.09372e-10
-1.14183e-15
-1.0585e-12
1.72179e-10
-1.45084e-15
-1.40188e-12
1.40253e-10
-1.62818e-15
-1.68635e-12
1.13479e-10
-1.69468e-15
-1.81015e-12
9.1453e-11
-1.58265e-15
-1.64784e-12
7.36061e-11
-1.26763e-15
-1.07609e-12
5.93122e-11
-9.76452e-16
-4.32429e-13
2.70834e-10
-6.41933e-16
-8.32967e-13
2.29107e-10
-1.31247e-15
-1.26659e-12
1.90912e-10
-1.67355e-15
-1.73359e-12
1.57206e-10
-1.9332e-15
-2.17723e-12
1.28326e-10
-2.02286e-15
-2.4938e-12
1.04155e-10
-1.91234e-15
-2.55129e-12
8.43084e-11
-1.59461e-15
-2.21672e-12
6.82468e-11
-1.09186e-15
-1.38651e-12
5.53833e-11
-1.54503e-15
-4.74372e-13
2.85602e-10
-8.2158e-16
-9.40175e-13
2.46159e-10
-1.48733e-15
-1.46934e-12
2.08397e-10
-1.83042e-15
-2.06916e-12
1.73883e-10
-2.1935e-15
-2.6856e-12
1.43485e-10
-2.33468e-15
-3.21161e-12
1.17495e-10
-2.23468e-15
-3.50608e-12
9.57845e-11
-1.92171e-15
-3.42362e-12
7.79808e-11
-1.42309e-15
-2.84926e-12
6.3573e-11
-6.89466e-16
-1.71482e-12
5.20149e-11
-7.85053e-16
-5.02958e-13
2.94037e-10
-4.49278e-16
-1.02859e-12
2.58989e-10
-1.4415e-15
-1.65435e-12
2.23392e-10
-1.846e-15
-2.39444e-12
1.89369e-10
-2.37864e-15
-3.19755e-12
1.58337e-10
-2.5677e-15
-3.95177e-12
1.31068e-10
-2.51845e-15
-4.50427e-12
1.07801e-10
-2.22745e-15
-4.69362e-12
8.83915e-11
-1.71073e-15
-4.3902e-12
7.24748e-11
-1.03574e-15
-3.51585e-12
5.9572e-11
-1.71233e-16
-2.04678e-12
4.91827e-11
-6.77672e-16
-5.13935e-13
2.94757e-10
-7.34186e-16
-1.08833e-12
2.66084e-10
-1.45369e-15
-1.80601e-12
2.34539e-10
-1.832e-15
-2.68964e-12
2.0256e-10
-2.43264e-15
-3.69149e-12
1.72065e-10
-2.64641e-15
-4.69388e-12
1.4432e-10
-2.6535e-15
-5.52925e-12
1.19994e-10
-2.41857e-15
-6.0159e-12
9.92668e-11
-1.93078e-15
-6.00509e-12
8.19764e-11
-1.30807e-15
-5.40543e-12
6.77722e-11
-5.863e-16
-4.18761e-12
5.62136e-11
3.67895e-16
-2.37288e-12
4.68536e-11
-3.91176e-16
-5.04395e-13
2.87003e-10
-6.10761e-16
-1.10991e-12
2.66225e-10
-1.03877e-15
-1.90663e-12
2.40489e-10
-1.51072e-15
-2.92933e-12
2.12236e-10
-2.13909e-15
-4.13671e-12
1.83669e-10
-2.44487e-15
-5.40586e-12
1.56504e-10
-2.57108e-15
-6.55176e-12
1.31849e-10
-2.40187e-15
-7.36733e-12
1.10264e-10
-2.02787e-15
-7.67908e-12
9.18739e-11
-1.4965e-15
-7.3774e-12
7.65041e-11
-8.72472e-16
-6.42463e-12
6.38274e-11
-2.193e-16
-4.84514e-12
5.34511e-11
7.05876e-16
-2.68967e-12
4.49876e-11
-2.81817e-16
-4.74124e-13
2.70898e-10
-3.47713e-16
-1.08711e-12
2.58765e-10
-5.66096e-16
-1.93991e-12
2.40172e-10
-1.08747e-15
-3.08513e-12
2.172e-10
-1.60831e-15
-4.49408e-12
1.92058e-10
-1.92121e-15
-6.04216e-12
1.66716e-10
-2.10354e-15
-7.52583e-12
1.42684e-10
-2.03235e-15
-8.70716e-12
1.20909e-10
-1.81235e-15
-9.3805e-12
1.01847e-10
-1.47559e-15
-9.41132e-12
8.55738e-11
-1.04724e-15
-8.74863e-12
7.19166e-11
-6.24242e-16
-7.41787e-12
6.05834e-11
-2.15688e-16
-5.48151e-12
5.12368e-11
5.65857e-16
-2.99939e-12
4.35499e-11
-2.41935e-16
-3.82049e-14
1.06209e-10
-3.17746e-16
-8.10016e-14
1.25822e-10
-2.18051e-16
-8.56311e-14
9.96314e-11
-4.07798e-16
-1.28499e-13
1.47688e-10
-2.87513e-16
-1.80752e-13
1.17479e-10
-3.88677e-16
-1.55204e-13
9.30999e-11
-5.19835e-16
-1.80603e-13
1.7162e-10
-3.72078e-16
-2.85545e-13
1.37293e-10
-5.04552e-16
-3.26176e-13
1.09298e-10
-6.08229e-16
-2.59363e-13
8.67319e-11
-6.54269e-16
-2.36912e-13
1.97218e-10
-4.75791e-16
-3.99788e-13
1.58893e-10
-6.43273e-16
-5.13186e-13
1.27215e-10
-7.85321e-16
-5.42886e-13
1.01409e-10
-8.67826e-16
-4.09358e-13
8.06411e-11
-8.08237e-16
-2.9657e-13
2.23792e-10
-6.02626e-16
-5.22598e-13
1.81907e-10
-8.05722e-16
-7.15794e-13
1.46677e-10
-9.95526e-16
-8.50947e-13
1.1759e-10
-1.10462e-15
-8.53645e-13
9.39337e-11
-1.113e-15
-6.12858e-13
7.49304e-11
-1.0509e-15
-3.57996e-13
2.50335e-10
-7.4625e-16
-6.52039e-13
2.05699e-10
-9.9103e-16
-9.32392e-13
1.67335e-10
-1.23929e-15
-1.18277e-12
1.35107e-10
-1.38234e-15
-1.33338e-12
1.08542e-10
-1.41241e-15
-1.27359e-12
8.69781e-11
-1.27292e-15
-8.71419e-13
6.96864e-11
-1.21462e-15
-4.1875e-13
2.75481e-10
-8.18979e-16
-7.84695e-13
2.29372e-10
-1.19449e-15
-1.15961e-12
1.88626e-10
-1.50714e-15
-1.53579e-12
1.5365e-10
-1.70059e-15
-1.84744e-12
1.24318e-10
-1.75482e-15
-1.98305e-12
1.00189e-10
-1.61684e-15
-1.80524e-12
8.06368e-11
-1.26487e-15
-1.17889e-12
6.49775e-11
-1.23117e-15
-4.75005e-13
2.97495e-10
-7.07317e-16
-9.14971e-13
2.51661e-10
-1.40161e-15
-1.39128e-12
2.09705e-10
-1.77593e-15
-1.90425e-12
1.72682e-10
-2.04999e-15
-2.39156e-12
1.40959e-10
-2.13579e-15
-2.7393e-12
1.14408e-10
-1.99953e-15
-2.80244e-12
9.26077e-11
-1.63052e-15
-2.43494e-12
7.4965e-11
-1.05104e-15
-1.52301e-12
6.08351e-11
-1.43982e-15
-5.2231e-13
3.14466e-10
-8.91798e-16
-1.03519e-12
2.71036e-10
-1.60223e-15
-1.61784e-12
2.29458e-10
-1.99458e-15
-2.27828e-12
1.91456e-10
-2.39244e-15
-2.95702e-12
1.57986e-10
-2.53067e-15
-3.53618e-12
1.29369e-10
-2.40642e-15
-3.86042e-12
1.05464e-10
-2.02561e-15
-3.76963e-12
8.58614e-11
-1.42412e-15
-3.13721e-12
6.99975e-11
-5.69423e-16
-1.88813e-12
5.72713e-11
-1.03383e-15
-5.55025e-13
3.24472e-10
-4.61423e-16
-1.13507e-12
2.85798e-10
-1.64717e-15
-1.82561e-12
2.46515e-10
-2.06861e-15
-2.64231e-12
2.08971e-10
-2.68087e-15
-3.52854e-12
1.74727e-10
-2.87698e-15
-4.36083e-12
1.44635e-10
-2.79824e-15
-4.97052e-12
1.18959e-10
-2.4336e-15
-5.17946e-12
9.75406e-11
-1.79808e-15
-4.84463e-12
7.99763e-11
-9.53835e-16
-3.87979e-12
6.57379e-11
9.42002e-17
-2.25864e-12
5.42733e-11
-7.10807e-16
-5.68274e-13
3.25916e-10
-8.62413e-16
-1.2034e-12
2.94212e-10
-1.67957e-15
-1.99694e-12
2.59332e-10
-2.1753e-15
-2.97399e-12
2.23972e-10
-2.86302e-15
-4.08174e-12
1.90254e-10
-3.11676e-15
-5.1901e-12
1.59576e-10
-3.11096e-15
-6.11377e-12
1.32678e-10
-2.78637e-15
-6.65186e-12
1.0976e-10
-2.15635e-15
-6.6399e-12
9.06415e-11
-1.32466e-15
-5.97685e-12
7.49358e-11
-3.49439e-16
-4.63028e-12
6.21553e-11
8.57957e-16
-2.62372e-12
5.1806e-11
-6.30489e-16
-5.58736e-13
3.17915e-10
-8.74401e-16
-1.22948e-12
2.94899e-10
-1.33176e-15
-2.11203e-12
2.6639e-10
-1.88972e-15
-3.24489e-12
2.35095e-10
-2.74237e-15
-4.58232e-12
2.03451e-10
-3.10516e-15
-5.98816e-12
1.7336e-10
-3.24222e-15
-7.25747e-12
1.46049e-10
-2.98518e-15
-8.16087e-12
1.2214e-10
-2.44156e-15
-8.50619e-12
1.01768e-10
-1.67309e-15
-8.172e-12
8.47431e-11
-7.47472e-16
-7.11661e-12
7.07011e-11
2.55116e-16
-5.36699e-12
5.92072e-11
1.51784e-15
-2.97935e-12
4.98322e-11
-3.37327e-16
-5.26129e-13
3.00562e-10
-4.7764e-16
-1.20634e-12
2.871e-10
-8.96276e-16
-2.15264e-12
2.66471e-10
-1.61358e-15
-3.42336e-12
2.40983e-10
-2.37274e-15
-4.98666e-12
2.13087e-10
-2.82948e-15
-6.70429e-12
1.84969e-10
-3.07319e-15
-8.3504e-12
1.58304e-10
-2.92153e-15
-9.66103e-12
1.34144e-10
-2.5166e-15
-1.0408e-11
1.12994e-10
-1.89591e-15
-1.04421e-11
9.4939e-11
-1.11344e-15
-9.70679e-12
7.97863e-11
-2.80831e-16
-8.23023e-12
6.72122e-11
5.8439e-16
-6.08174e-12
5.68423e-11
1.83386e-15
-3.32763e-12
4.83139e-11
-2.4817e-16
-4.7373e-13
2.751e-10
-1.44689e-16
-1.13349e-12
2.70945e-10
-4.60529e-16
-2.10707e-12
2.58932e-10
-1.06243e-15
-3.48018e-12
2.40568e-10
-1.59027e-15
-5.24609e-12
2.17954e-10
-2.05725e-15
-7.27402e-12
1.93292e-10
-2.38222e-15
-9.3201e-12
1.68513e-10
-2.3862e-15
-1.10812e-11
1.4506e-10
-2.21246e-15
-1.22835e-11
1.23814e-10
-1.83148e-15
-1.27392e-11
1.05176e-10
-1.34e-15
-1.23689e-11
8.91954e-11
-7.99116e-16
-1.11969e-11
7.56965e-11
-2.49502e-16
-9.30451e-12
6.44066e-11
3.00616e-16
-6.77861e-12
5.50158e-11
1.30317e-15
-3.68083e-12
4.72294e-11
-2.22727e-16
-4.05511e-14
1.12754e-10
-3.03689e-16
-8.64137e-14
1.34244e-10
-2.06626e-16
-9.13636e-14
1.063e-10
-3.91419e-16
-1.37734e-13
1.58313e-10
-2.76866e-16
-1.93756e-13
1.2593e-10
-3.72795e-16
-1.66369e-13
9.97977e-11
-4.94076e-16
-1.9444e-13
1.84773e-10
-3.62803e-16
-3.07431e-13
1.47815e-10
-4.91078e-16
-3.51174e-13
1.17675e-10
-5.8778e-16
-2.79241e-13
9.33792e-11
-6.31727e-16
-2.5611e-13
2.13196e-10
-4.68284e-16
-4.32179e-13
1.71767e-10
-6.34599e-16
-5.54764e-13
1.37521e-10
-7.69711e-16
-5.8687e-13
1.09625e-10
-8.53112e-16
-4.42526e-13
8.71744e-11
-8.2731e-16
-3.21806e-13
2.42834e-10
-5.94893e-16
-5.67064e-13
1.97385e-10
-8.05615e-16
-7.76701e-13
1.59157e-10
-9.89155e-16
-9.23353e-13
1.27595e-10
-1.10054e-15
-9.26283e-13
1.01926e-10
-1.0944e-15
-6.65006e-13
8.13061e-11
-9.92948e-16
-3.89817e-13
2.72582e-10
-7.31357e-16
-7.0998e-13
2.2398e-10
-1.00468e-15
-1.01525e-12
1.82206e-10
-1.2479e-15
-1.28788e-12
1.47113e-10
-1.3957e-15
-1.45188e-12
1.18188e-10
-1.41144e-15
-1.38677e-12
9.47076e-11
-1.25362e-15
-9.48865e-13
7.58793e-11
-1.3657e-15
-4.57388e-13
3.00905e-10
-8.44951e-16
-8.57105e-13
2.5054e-10
-1.22682e-15
-1.26663e-12
2.06034e-10
-1.5399e-15
-1.67752e-12
1.6783e-10
-1.74149e-15
-2.01794e-12
1.35791e-10
-1.78306e-15
-2.16607e-12
1.09435e-10
-1.62093e-15
-1.97185e-12
8.80785e-11
-1.22421e-15
-1.28769e-12
7.09741e-11
-1.17939e-15
-5.20385e-13
3.25912e-10
-7.78385e-16
-1.00237e-12
2.75699e-10
-1.46061e-15
-1.52418e-12
2.29736e-10
-1.84357e-15
-2.08615e-12
1.89176e-10
-2.13486e-15
-2.62001e-12
1.54423e-10
-2.20888e-15
-3.00096e-12
1.25336e-10
-2.04412e-15
-3.07014e-12
1.01453e-10
-1.6184e-15
-2.66754e-12
8.21255e-11
-9.60343e-16
-1.66849e-12
6.66459e-11
-1.72454e-15
-5.73724e-13
3.45423e-10
-9.44057e-16
-1.1371e-12
2.97718e-10
-1.71388e-15
-1.77711e-12
2.52046e-10
-2.11542e-15
-2.50256e-12
2.10304e-10
-2.53876e-15
-3.24812e-12
1.73538e-10
-2.66881e-15
-3.8843e-12
1.42104e-10
-2.51526e-15
-4.24045e-12
1.15846e-10
-2.06692e-15
-4.14072e-12
9.43135e-11
-1.36306e-15
-3.44605e-12
7.6888e-11
-3.77461e-16
-2.07401e-12
6.2909e-11
-1.01178e-15
-6.11122e-13
3.57264e-10
-6.155e-16
-1.2498e-12
3.14681e-10
-1.79038e-15
-2.01012e-12
2.71429e-10
-2.28181e-15
-2.90936e-12
2.3009e-10
-2.91684e-15
-3.88516e-12
1.92385e-10
-3.11866e-15
-4.80155e-12
1.59252e-10
-3.01054e-15
-5.47286e-12
1.30981e-10
-2.56206e-15
-5.70292e-12
1.07398e-10
-1.80269e-15
-5.33425e-12
8.80585e-11
-7.83597e-16
-4.27189e-12
7.23811e-11
4.61737e-16
-2.48692e-12
5.97579e-11
-9.35477e-16
-6.27106e-13
3.59652e-10
-9.75174e-16
-1.32798e-12
3.24665e-10
-1.92088e-15
-2.20367e-12
2.86176e-10
-2.43291e-15
-3.28186e-12
2.47155e-10
-3.22864e-15
-4.50427e-12
2.09947e-10
-3.49111e-15
-5.72735e-12
1.76094e-10
-3.45522e-15
-6.74663e-12
1.46411e-10
-3.04436e-15
-7.34041e-12
1.2112e-10
-2.26728e-15
-7.32722e-12
1.00023e-10
-1.22449e-15
-6.59552e-12
8.26919e-11
1.29106e-17
-5.10957e-12
6.85885e-11
1.49349e-15
-2.89531e-12
5.71679e-11
-6.44767e-16
-6.17814e-13
3.51522e-10
-9.46735e-16
-1.35948e-12
3.26072e-10
-1.57566e-15
-2.33533e-12
2.9455e-10
-2.27618e-15
-3.58795e-12
2.59947e-10
-3.23395e-15
-5.06676e-12
2.24957e-10
-3.66056e-15
-6.62121e-12
1.91685e-10
-3.79471e-15
-8.0247e-12
1.61488e-10
-3.44035e-15
-9.02359e-12
1.3505e-10
-2.72167e-15
-9.4054e-12
1.12525e-10
-1.69961e-15
-9.03589e-12
9.37005e-11
-4.5962e-16
-7.86892e-12
7.81742e-11
9.10062e-16
-5.93434e-12
6.54653e-11
2.53945e-15
-3.29431e-12
5.50993e-11
-5.84589e-16
-5.82812e-13
3.32934e-10
-6.82781e-16
-1.3363e-12
3.18022e-10
-1.08669e-15
-2.38454e-12
2.95171e-10
-2.05931e-15
-3.79215e-12
2.66938e-10
-3.05036e-15
-5.52384e-12
2.36037e-10
-3.59712e-15
-7.42647e-12
2.0489e-10
-3.88206e-15
-9.24987e-12
1.75353e-10
-3.62706e-15
-1.07016e-11