/*--------------------------------*- C++ -*----------------------------------*\
  =========                 |
  \\      /  F ield         | OpenFOAM: The Open Source CFD Toolbox
   \\    /   O peration     | Website:  https://openfoam.org
    \\  /    A nd           | Version:  7
     \\/     M anipulation  |
\*---------------------------------------------------------------------------*/
FoamFile
{
    version     2.0;
    format      ascii;
    class       volVectorField;
    location    "118";
    object      U;
}
// * * * * * * * * * * * * * * * * * * * * * * * * * * * * * * * * * * * * * //

dimensions      [0 1 -1 0 0 0 0];

internalField   nonuniform List<vector> 
43144
(
(0.0333626 -4.92761e-10 -1.98219e-07)
(0.0333626 -1.20962e-09 -1.98226e-07)
(0.0333626 -5.00117e-10 -6.45894e-07)
(0.0333816 -5.56023e-10 -4.85474e-07)
(0.0333626 -1.65952e-09 -1.98229e-07)
(0.0333626 -1.22468e-09 -6.45909e-07)
(0.0333816 -1.25074e-09 -4.85486e-07)
(0.0333625 -5.04713e-10 -1.20919e-06)
(0.0333816 -5.83268e-10 -1.58205e-06)
(0.0334213 -1.19596e-09 -9.80701e-07)
(0.0333626 -2.05318e-09 -1.98229e-07)
(0.0333626 -1.6689e-09 -6.45906e-07)
(0.0333816 -1.59067e-09 -4.85498e-07)
(0.0333625 -1.21221e-09 -1.2092e-06)
(0.0333816 -1.30309e-09 -1.58207e-06)
(0.0334213 -2.81564e-09 -9.80733e-07)
(0.0333624 -5.08092e-10 -1.91413e-06)
(0.0333815 -5.93672e-10 -2.9621e-06)
(0.0334212 -1.27049e-09 -3.196e-06)
(0.0334951 -1.93375e-09 -1.86143e-06)
(0.0333626 -2.3302e-09 -1.98233e-07)
(0.0333626 -2.06525e-09 -6.45909e-07)
(0.0333816 -1.98011e-09 -4.85511e-07)
(0.0333625 -1.65627e-09 -1.20919e-06)
(0.0333816 -1.6412e-09 -1.58209e-06)
(0.0334213 -3.72257e-09 -9.80758e-07)
(0.0333624 -1.188e-09 -1.91414e-06)
(0.0333815 -1.3369e-09 -2.96212e-06)
(0.0334212 -2.94479e-09 -3.19603e-06)
(0.0334951 -4.51949e-09 -1.86149e-06)
(0.0333622 -4.20016e-10 -2.78744e-06)
(0.0333813 -6.43758e-10 -4.68946e-06)
(0.0334211 -1.26628e-09 -5.98401e-06)
(0.033495 -2.05369e-09 -6.0663e-06)
(0.0336245 -2.97731e-09 -3.39752e-06)
(0.0333626 -2.54942e-09 -1.98231e-07)
(0.0333626 -2.33984e-09 -6.45907e-07)
(0.0333816 -2.31181e-09 -4.85528e-07)
(0.0333625 -2.05504e-09 -1.20919e-06)
(0.0333816 -2.03578e-09 -1.58212e-06)
(0.0334213 -4.63642e-09 -9.80783e-07)
(0.0333624 -1.60636e-09 -1.91411e-06)
(0.0333815 -1.7003e-09 -2.96215e-06)
(0.0334212 -3.82211e-09 -3.19606e-06)
(0.0334951 -5.93771e-09 -1.86153e-06)
(0.0333622 -9.90096e-10 -2.78744e-06)
(0.0333813 -1.44949e-09 -4.68948e-06)
(0.0334211 -2.93854e-09 -5.984e-06)
(0.033495 -4.72958e-09 -6.06635e-06)
(0.0336245 -6.98607e-09 -3.39762e-06)
(0.0333619 -4.39324e-10 -3.85647e-06)
(0.033381 -6.73167e-10 -6.83051e-06)
(0.0334207 -1.24572e-09 -9.47313e-06)
(0.0334947 -2.0527e-09 -1.13582e-05)
(0.0336243 -3.21089e-09 -1.10726e-05)
(0.0338404 -4.22992e-09 -5.98159e-06)
(0.0333626 -2.73956e-09 -1.98247e-07)
(0.0333626 -2.57516e-09 -6.45909e-07)
(0.0333816 -2.61845e-09 -4.85545e-07)
(0.0333625 -2.33229e-09 -1.20916e-06)
(0.0333816 -2.36759e-09 -1.58215e-06)
(0.0334213 -5.37364e-09 -9.80804e-07)
(0.0333624 -1.98741e-09 -1.91407e-06)
(0.0333815 -2.11108e-09 -2.96219e-06)
(0.0334212 -4.71745e-09 -3.19608e-06)
(0.0334951 -7.38821e-09 -1.86157e-06)
(0.0333622 -1.38565e-09 -2.78742e-06)
(0.0333813 -1.84449e-09 -4.68951e-06)
(0.0334211 -3.8167e-09 -5.98399e-06)
(0.033495 -6.10537e-09 -6.06639e-06)
(0.0336245 -9.20805e-09 -3.3977e-06)
(0.0333619 -1.01548e-09 -3.85648e-06)
(0.033381 -1.52599e-09 -6.83052e-06)
(0.0334207 -2.90077e-09 -9.47312e-06)
(0.0334947 -4.74249e-09 -1.13582e-05)
(0.0336243 -7.39084e-09 -1.10727e-05)
(0.0338404 -9.88259e-09 -5.98176e-06)
(0.0333612 -4.05165e-10 -5.14308e-06)
(0.0333804 -7.02077e-10 -9.45177e-06)
(0.0334201 -1.25256e-09 -1.37971e-05)
(0.0334941 -2.07713e-09 -1.79809e-05)
(0.0336238 -3.19634e-09 -2.07319e-05)
(0.03384 -4.61535e-09 -1.94944e-05)
(0.0341833 -5.69195e-09 -1.01577e-05)
(0.0333626 -2.87159e-09 -1.9823e-07)
(0.0333626 -2.74838e-09 -6.45911e-07)
(0.0333816 -2.89537e-09 -4.85567e-07)
(0.0333625 -2.5574e-09 -1.20916e-06)
(0.0333816 -2.67647e-09 -1.58219e-06)
(0.0334213 -5.9809e-09 -9.80821e-07)
(0.0333624 -2.2683e-09 -1.91402e-06)
(0.0333815 -2.45303e-09 -2.96224e-06)
(0.0334212 -5.43388e-09 -3.1961e-06)
(0.0334951 -8.55978e-09 -1.86161e-06)
(0.0333622 -1.7661e-09 -2.78739e-06)
(0.0333813 -2.26899e-09 -4.68956e-06)
(0.0334211 -4.71204e-09 -5.98398e-06)
(0.033495 -7.53659e-09 -6.06644e-06)
(0.0336245 -1.14598e-08 -3.39778e-06)
(0.0333619 -1.3949e-09 -3.85648e-06)
(0.033381 -1.96371e-09 -6.83054e-06)
(0.0334207 -3.77726e-09 -9.47311e-06)
(0.0334947 -6.13785e-09 -1.13582e-05)
(0.0336243 -9.52414e-09 -1.10728e-05)
(0.0338404 -1.29656e-08 -5.98189e-06)
(0.0333612 -9.4534e-10 -5.1431e-06)
(0.0333804 -1.59295e-09 -9.45178e-06)
(0.0334201 -2.90916e-09 -1.37971e-05)
(0.0334941 -4.79695e-09 -1.79809e-05)
(0.0336238 -7.37985e-09 -2.07318e-05)
(0.03384 -1.05536e-08 -1.94946e-05)
(0.0341833 -1.32782e-08 -1.0158e-05)
(0.0333603 -5.09165e-10 -6.65692e-06)
(0.0333793 -6.74457e-10 -1.26066e-05)
(0.033419 -1.24633e-09 -1.90901e-05)
(0.0334929 -2.07808e-09 -2.61877e-05)
(0.0336227 -3.17714e-09 -3.2819e-05)
(0.0338391 -4.59599e-09 -3.65002e-05)
(0.0341827 -6.34958e-09 -3.3105e-05)
(0.0347027 -7.10811e-09 -1.66482e-05)
(0.0333626 -2.94555e-09 -1.98244e-07)
(0.0333626 -2.87539e-09 -6.45892e-07)
(0.0333816 -3.12475e-09 -4.85577e-07)
(0.0333625 -2.7207e-09 -1.20913e-06)
(0.0333816 -2.94177e-09 -1.58224e-06)
(0.0334213 -6.45246e-09 -9.80833e-07)
(0.0333624 -2.50049e-09 -1.91399e-06)
(0.0333815 -2.75644e-09 -2.96229e-06)
(0.0334212 -6.02185e-09 -3.19612e-06)
(0.0334951 -9.53806e-09 -1.86165e-06)
(0.0333622 -2.07395e-09 -2.78736e-06)
(0.0333813 -2.60936e-09 -4.68961e-06)
(0.0334211 -5.42705e-09 -5.98398e-06)
(0.033495 -8.68246e-09 -6.06649e-06)
(0.0336245 -1.32721e-08 -3.39785e-06)
(0.0333619 -1.75377e-09 -3.85647e-06)
(0.033381 -2.41628e-09 -6.83057e-06)
(0.0334207 -4.67572e-09 -9.47311e-06)
(0.0334947 -7.57833e-09 -1.13583e-05)
(0.0336243 -1.17281e-08 -1.10728e-05)
(0.0338404 -1.60957e-08 -5.98203e-06)
(0.0333612 -1.31748e-09 -5.14311e-06)
(0.0333804 -2.05211e-09 -9.45179e-06)
(0.0334201 -3.77716e-09 -1.37971e-05)
(0.0334941 -6.20649e-09 -1.79809e-05)
(0.0336238 -9.53343e-09 -2.07318e-05)
(0.03384 -1.34954e-08 -1.94947e-05)
(0.0341833 -1.7354e-08 -1.01582e-05)
(0.0333603 -1.17826e-09 -6.65693e-06)
(0.0333793 -1.53051e-09 -1.26066e-05)
(0.033419 -2.89199e-09 -1.90901e-05)
(0.0334929 -4.801e-09 -2.61877e-05)
(0.0336227 -7.35791e-09 -3.2819e-05)
(0.0338391 -1.05544e-08 -3.65002e-05)
(0.0341827 -1.44197e-08 -3.31053e-05)
(0.0347027 -1.64213e-08 -1.66486e-05)
(0.0333588 -3.71607e-10 -8.38116e-06)
(0.0333777 -5.21277e-10 -1.63151e-05)
(0.0334171 -1.24185e-09 -2.54591e-05)
(0.0334908 -2.0776e-09 -3.6232e-05)
(0.0336205 -3.21964e-09 -4.77952e-05)
(0.0338371 -4.62369e-09 -5.77784e-05)
(0.0341811 -6.3081e-09 -6.19826e-05)
(0.0347017 -8.15491e-09 -5.42578e-05)
(0.0354547 -8.42525e-09 -2.63904e-05)
(0.0333626 -2.93942e-09 -1.98214e-07)
(0.0333626 -2.93846e-09 -6.45883e-07)
(0.0333816 -3.29806e-09 -4.85595e-07)
(0.0333625 -2.83835e-09 -1.20911e-06)
(0.0333816 -3.16208e-09 -1.58227e-06)
(0.0334213 -6.8034e-09 -9.80846e-07)
(0.0333624 -2.65104e-09 -1.91394e-06)
(0.0333815 -3.0113e-09 -2.96234e-06)
(0.0334212 -6.48268e-09 -3.19613e-06)
(0.0334951 -1.03096e-08 -1.86168e-06)
(0.0333622 -2.33423e-09 -2.78733e-06)
(0.0333813 -2.90283e-09 -4.68967e-06)
(0.0334211 -6.01729e-09 -5.98397e-06)
(0.033495 -9.63607e-09 -6.06654e-06)
(0.0336245 -1.47634e-08 -3.39791e-06)
(0.0333619 -2.0562e-09 -3.85646e-06)
(0.033381 -2.76826e-09 -6.83061e-06)
(0.0334207 -5.39786e-09 -9.4731e-06)
(0.0334947 -8.72783e-09 -1.13583e-05)
(0.0336243 -1.34829e-08 -1.10729e-05)
(0.0338404 -1.85865e-08 -5.98215e-06)
(0.0333612 -1.67395e-09 -5.14313e-06)
(0.0333804 -2.51266e-09 -9.45179e-06)
(0.0334201 -4.6688e-09 -1.37971e-05)
(0.0334941 -7.65166e-09 -1.7981e-05)
(0.0336238 -1.17481e-08 -2.07318e-05)
(0.03384 -1.6557e-08 -1.94948e-05)
(0.0341833 -2.1437e-08 -1.01584e-05)
(0.0333603 -1.63453e-09 -6.65693e-06)
(0.0333793 -1.96628e-09 -1.26066e-05)
(0.033419 -3.75431e-09 -1.90901e-05)
(0.0334929 -6.21632e-09 -2.61877e-05)
(0.0336227 -9.52901e-09 -3.2819e-05)
(0.0338391 -1.35492e-08 -3.65002e-05)
(0.0341827 -1.82517e-08 -3.31055e-05)
(0.0347027 -2.11649e-08 -1.6649e-05)
(0.0333588 -8.66187e-10 -8.38117e-06)
(0.0333777 -1.18711e-09 -1.63151e-05)
(0.0334171 -2.87864e-09 -2.54591e-05)
(0.0334908 -4.79831e-09 -3.6232e-05)
(0.0336205 -7.44343e-09 -4.77952e-05)
(0.0338371 -1.06328e-08 -5.77784e-05)
(0.0341811 -1.43899e-08 -6.19826e-05)
(0.0347017 -1.82412e-08 -5.42583e-05)
(0.0354547 -1.90958e-08 -2.63911e-05)
(0.0333567 -5.06515e-10 -1.02623e-05)
(0.0333753 -6.19799e-10 -2.05394e-05)
(0.0334142 -1.24479e-09 -3.2946e-05)
(0.0334874 -2.05846e-09 -4.83149e-05)
(0.0336168 -3.21417e-09 -6.61196e-05)
(0.0338332 -4.66061e-09 -8.41361e-05)
(0.0341776 -6.30082e-09 -9.81083e-05)
(0.034699 -8.09577e-09 -0.000101582)
(0.0354531 -1.00681e-08 -8.60071e-05)
(0.0364993 -9.05799e-09 -4.06049e-05)
(0.0333626 -2.88479e-09 -1.98227e-07)
(0.0333626 -2.92758e-09 -6.4584e-07)
(0.0333816 -3.40202e-09 -4.85596e-07)
(0.0333625 -2.88841e-09 -1.20907e-06)
(0.0333816 -3.32354e-09 -1.5823e-06)
(0.0334213 -7.03976e-09 -9.80852e-07)
(0.0333624 -2.77158e-09 -1.91391e-06)
(0.0333815 -3.21629e-09 -2.96239e-06)
(0.0334212 -6.82424e-09 -3.19614e-06)
(0.0334951 -1.08872e-08 -1.8617e-06)
(0.0333622 -2.52612e-09 -2.78729e-06)
(0.0333813 -3.13246e-09 -4.68973e-06)
(0.0334211 -6.47957e-09 -5.98396e-06)
(0.033495 -1.03859e-08 -6.06658e-06)
(0.0336245 -1.59133e-08 -3.39796e-06)
(0.0333619 -2.30959e-09 -3.85646e-06)
(0.033381 -3.0586e-09 -6.83065e-06)
(0.0334207 -5.9932e-09 -9.47309e-06)
(0.0334947 -9.67938e-09 -1.13583e-05)
(0.0336243 -1.49208e-08 -1.1073e-05)
(0.0338404 -2.06186e-08 -5.98225e-06)
(0.0333612 -1.98544e-09 -5.14316e-06)
(0.0333804 -2.86536e-09 -9.45179e-06)
(0.0334201 -5.38262e-09 -1.37971e-05)
(0.0334941 -8.79534e-09 -1.7981e-05)
(0.0336238 -1.35093e-08 -2.07318e-05)
(0.03384 -1.89599e-08 -1.9495e-05)
(0.0341833 -2.45945e-08 -1.01586e-05)
(0.0333603 -2.03148e-09 -6.65692e-06)
(0.0333793 -2.40929e-09 -1.26065e-05)
(0.033419 -4.64287e-09 -1.90901e-05)
(0.0334929 -7.668e-09 -2.61877e-05)
(0.0336227 -1.17607e-08 -3.28191e-05)
(0.0338391 -1.66369e-08 -3.65003e-05)
(0.0341827 -2.22133e-08 -3.31057e-05)
(0.0347027 -2.58381e-08 -1.66493e-05)
(0.0333588 -1.18993e-09 -8.38117e-06)
(0.0333777 -1.49624e-09 -1.63151e-05)
(0.0334171 -3.73487e-09 -2.54591e-05)
(0.0334908 -6.21049e-09 -3.6232e-05)
(0.0336205 -9.61987e-09 -4.77952e-05)
(0.0338371 -1.3668e-08 -5.77784e-05)
(0.0341811 -1.82994e-08 -6.19826e-05)
(0.0347017 -2.26039e-08 -5.42586e-05)
(0.0354547 -2.38872e-08 -2.63917e-05)
(0.0333567 -1.1696e-09 -1.02623e-05)
(0.0333753 -1.41077e-09 -2.05394e-05)
(0.0334142 -2.87743e-09 -3.2946e-05)
(0.0334874 -4.75263e-09 -4.83149e-05)
(0.0336168 -7.42965e-09 -6.61196e-05)
(0.0338332 -1.07153e-08 -8.41361e-05)
(0.0341776 -1.44104e-08 -9.81083e-05)
(0.034699 -1.82193e-08 -0.000101582)
(0.0354531 -2.19298e-08 -8.60078e-05)
(0.0364993 -1.94995e-08 -4.0606e-05)
(0.0333537 -3.13852e-10 -1.21955e-05)
(0.0333717 -4.39254e-10 -2.51456e-05)
(0.0334097 -1.18552e-09 -4.14695e-05)
(0.033482 -1.99441e-09 -6.25111e-05)
(0.0336105 -3.21108e-09 -8.81525e-05)
(0.0338266 -4.66619e-09 -0.000116373)
(0.034171 -6.36447e-09 -0.000142841)
(0.0346931 -8.13674e-09 -0.000160769)
(0.0354485 -9.91466e-09 -0.000161011)
(0.0364967 -1.15669e-08 -0.000132328)
(0.0378988 -8.71487e-09 -6.0916e-05)
(0.0333626 -2.80307e-09 -1.98201e-07)
(0.0333626 -2.88238e-09 -6.45836e-07)
(0.0333816 -3.44543e-09 -4.8561e-07)
(0.0333625 -2.89196e-09 -1.20904e-06)
(0.0333816 -3.41918e-09 -1.58231e-06)
(0.0334213 -7.17235e-09 -9.80862e-07)
(0.0333624 -2.82406e-09 -1.91387e-06)
(0.0333815 -3.36046e-09 -2.96243e-06)
(0.0334212 -7.05514e-09 -3.19615e-06)
(0.0334951 -1.12759e-08 -1.86172e-06)
(0.0333622 -2.67293e-09 -2.78727e-06)
(0.0333813 -3.31386e-09 -4.68978e-06)
(0.0334211 -6.82267e-09 -5.98396e-06)
(0.033495 -1.09448e-08 -6.06662e-06)
(0.0336245 -1.67547e-08 -3.398e-06)
(0.0333619 -2.49371e-09 -3.85644e-06)
(0.033381 -3.27522e-09 -6.83069e-06)
(0.0334207 -6.46342e-09 -9.47308e-06)
(0.0334947 -1.04243e-08 -1.13583e-05)
(0.0336243 -1.60358e-08 -1.1073e-05)
(0.0338404 -2.21594e-08 -5.98234e-06)
(0.0333612 -2.24668e-09 -5.14318e-06)
(0.0333804 -3.14977e-09 -9.45179e-06)
(0.0334201 -5.97439e-09 -1.37971e-05)
(0.0334941 -9.74026e-09 -1.7981e-05)
(0.0336238 -1.49555e-08 -2.07319e-05)
(0.03384 -2.09119e-08 -1.94951e-05)
(0.0341833 -2.70691e-08 -1.01588e-05)
(0.0333603 -2.33917e-09 -6.65692e-06)
(0.0333793 -2.7538e-09 -1.26065e-05)
(0.033419 -5.35426e-09 -1.90901e-05)
(0.0334929 -8.81764e-09 -2.61877e-05)
(0.0336227 -1.35366e-08 -3.28191e-05)
(0.0338391 -1.90547e-08 -3.65003e-05)
(0.0341827 -2.52155e-08 -3.3106e-05)
(0.0347027 -2.9233e-08 -1.66497e-05)
(0.0333588 -1.50037e-09 -8.38116e-06)
(0.0333777 -1.86208e-09 -1.63151e-05)
(0.0334171 -4.61594e-09 -2.54591e-05)
(0.0334908 -7.65691e-09 -3.6232e-05)
(0.0336205 -1.18505e-08 -4.77952e-05)
(0.0338371 -1.67781e-08 -5.77785e-05)
(0.0341811 -2.23002e-08 -6.19826e-05)
(0.0347017 -2.70944e-08 -5.42591e-05)
(0.0354547 -2.8341e-08 -2.63922e-05)
(0.0333567 -1.61461e-09 -1.02623e-05)
(0.0333753 -1.79462e-09 -2.05394e-05)
(0.0334142 -3.73838e-09 -3.2946e-05)
(0.0334874 -6.14564e-09 -4.83149e-05)
(0.0336168 -9.60499e-09 -6.61196e-05)
(0.0338332 -1.37673e-08 -8.41362e-05)
(0.0341776 -1.83701e-08 -9.81083e-05)
(0.034699 -2.27237e-08 -0.000101583)
(0.0354531 -2.60922e-08 -8.60083e-05)
(0.0364993 -2.24445e-08 -4.06069e-05)
(0.0333537 -7.22797e-10 -1.21955e-05)
(0.0333717 -9.94482e-10 -2.51456e-05)
(0.0334097 -2.74328e-09 -4.14695e-05)
(0.033482 -4.61008e-09 -6.25111e-05)
(0.0336105 -7.41884e-09 -8.81525e-05)
(0.0338266 -1.07272e-08 -0.000116373)
(0.034171 -1.45442e-08 -0.000142841)
(0.0346931 -1.83549e-08 -0.000160769)
(0.0354485 -2.17517e-08 -0.000161011)
(0.0364967 -2.38404e-08 -0.000132329)
(0.0378988 -1.63962e-08 -6.09177e-05)
(0.0333497 -2.5562e-10 -1.40201e-05)
(0.0333668 -5.28216e-10 -2.98757e-05)
(0.0334032 -1.14888e-09 -5.07575e-05)
(0.0334737 -1.95997e-09 -7.86607e-05)
(0.0336006 -3.20849e-09 -0.00011402)
(0.0338155 -4.65948e-09 -0.000155104)
(0.0341594 -6.38452e-09 -0.000197515)
(0.0346819 -8.2151e-09 -0.000234015)
(0.0354387 -9.90943e-09 -0.000254773)
(0.0364893 -1.13746e-08 -0.000247695)
(0.0378946 -1.24781e-08 -0.000198507)
(0.0397172 -6.38345e-09 -8.95568e-05)
(0.0333626 -2.71125e-09 -1.98216e-07)
(0.0333626 -2.79974e-09 -6.458e-07)
(0.0333816 -3.4348e-09 -4.85609e-07)
(0.0333625 -2.85041e-09 -1.20901e-06)
(0.0333816 -3.46e-09 -1.58234e-06)
(0.0334213 -7.20341e-09 -9.80865e-07)
(0.0333624 -2.8405e-09 -1.91384e-06)
(0.0333815 -3.4484e-09 -2.96246e-06)
(0.0334212 -7.18383e-09 -3.19616e-06)
(0.0334951 -1.14842e-08 -1.86174e-06)
(0.0333622 -2.74688e-09 -2.78724e-06)
(0.0333813 -3.43448e-09 -4.68983e-06)
(0.0334211 -7.05611e-09 -5.98396e-06)
(0.033495 -1.13189e-08 -6.06665e-06)
(0.0336245 -1.73023e-08 -3.39803e-06)
(0.0333619 -2.64247e-09 -3.85644e-06)
(0.033381 -3.43585e-09 -6.83073e-06)
(0.0334207 -6.81059e-09 -9.47307e-06)
(0.0334947 -1.09762e-08 -1.13583e-05)
(0.0336243 -1.68478e-08 -1.10731e-05)
(0.0338404 -2.32402e-08 -5.98242e-06)
(0.0333612 -2.4578e-09 -5.1432e-06)
(0.0333804 -3.35169e-09 -9.45179e-06)
(0.0334201 -6.44135e-09 -1.37971e-05)
(0.0334941 -1.04742e-08 -1.7981e-05)
(0.0336238 -1.60745e-08 -2.07319e-05)
(0.03384 -2.2387e-08 -1.94952e-05)
(0.0341833 -2.88196e-08 -1.0159e-05)
(0.0333603 -2.57367e-09 -6.65691e-06)
(0.0333793 -3.03314e-09 -1.26064e-05)
(0.033419 -5.94514e-09 -1.90901e-05)
(0.0334929 -9.76393e-09 -2.61877e-05)
(0.0336227 -1.49909e-08 -3.28191e-05)
(0.0338391 -2.10098e-08 -3.65004e-05)
(0.0341827 -2.75535e-08 -3.31062e-05)
(0.0347027 -3.16525e-08 -1.66499e-05)
(0.0333588 -1.78445e-09 -8.38115e-06)
(0.0333777 -2.19358e-09 -1.63151e-05)
(0.0334171 -5.32012e-09 -2.54591e-05)
(0.0334908 -8.79984e-09 -3.6232e-05)
(0.0336205 -1.36137e-08 -4.77952e-05)
(0.0338371 -1.91995e-08 -5.77785e-05)
(0.0341811 -2.53265e-08 -6.19827e-05)
(0.0347017 -3.02469e-08 -5.42594e-05)
(0.0354547 -3.09412e-08 -2.63927e-05)
(0.0333567 -1.99206e-09 -1.02623e-05)
(0.0333753 -2.19053e-09 -2.05394e-05)
(0.0334142 -4.61675e-09 -3.2946e-05)
(0.0334874 -7.57524e-09 -4.83148e-05)
(0.0336168 -1.18382e-08 -6.61196e-05)
(0.0338332 -1.68894e-08 -8.41362e-05)
(0.0341776 -2.24052e-08 -9.81083e-05)
(0.034699 -2.72841e-08 -0.000101583)
(0.0354531 -3.02453e-08 -8.60089e-05)
(0.0364993 -2.45896e-08 -4.06077e-05)
(0.0333537 -9.8405e-10 -1.21955e-05)
(0.0333717 -1.22141e-09 -2.51456e-05)
(0.0334097 -3.55659e-09 -4.14695e-05)
(0.033482 -5.94871e-09 -6.25111e-05)
(0.0336105 -9.58581e-09 -8.81525e-05)
(0.0338266 -1.37813e-08 -0.000116373)
(0.034171 -1.85205e-08 -0.000142841)
(0.0346931 -2.29528e-08 -0.000160769)
(0.0354485 -2.61079e-08 -0.000161011)
(0.0364967 -2.5848e-08 -0.00013233)
(0.0378988 -1.4152e-08 -6.0919e-05)
(0.0333497 -5.86814e-10 -1.40201e-05)
(0.0333668 -1.20691e-09 -2.98756e-05)
(0.0334032 -2.65286e-09 -5.07575e-05)
(0.0334737 -4.52293e-09 -7.86607e-05)
(0.0336006 -7.4076e-09 -0.00011402)
(0.0338155 -1.07038e-08 -0.000155104)
(0.0341594 -1.45889e-08 -0.000197515)
(0.0346819 -1.85256e-08 -0.000234015)
(0.0354387 -2.18178e-08 -0.000254773)
(0.0364893 -2.36704e-08 -0.000247695)
(0.0378946 -2.28956e-08 -0.000198509)
(0.0397172 -6.17882e-09 -8.95593e-05)
(0.0333449 -1.9945e-10 -1.55378e-05)
(0.0333603 -4.31374e-10 -3.43393e-05)
(0.0333942 -1.00035e-09 -6.02852e-05)
(0.0334616 -1.81183e-09 -9.62374e-05)
(0.0335855 -3.0754e-09 -0.000143409)
(0.0337978 -4.565e-09 -0.000200519)
(0.0341402 -6.39028e-09 -0.000263127)
(0.0346624 -8.25256e-09 -0.000323444)
(0.0354204 -1.00613e-08 -0.000370709)
(0.0364734 -1.14353e-08 -0.000391821)
(0.0378825 -1.21703e-08 -0.000371497)
(0.0397103 -1.1939e-08 -0.000291808)
(0.0420233 -5.29282e-10 -0.000129725)
(0.0333626 -2.63804e-09 -1.98198e-07)
(0.0333626 -2.71712e-09 -6.45801e-07)
(0.0333816 -3.3756e-09 -4.85619e-07)
(0.0333625 -2.77523e-09 -1.20898e-06)
(0.0333816 -3.44408e-09 -1.58234e-06)
(0.0334213 -7.13522e-09 -9.80872e-07)
(0.0333624 -2.80342e-09 -1.91381e-06)
(0.0333815 -3.47965e-09 -2.96248e-06)
(0.0334212 -7.20945e-09 -3.19616e-06)
(0.0334951 -1.15183e-08 -1.86175e-06)
(0.0333622 -2.7895e-09 -2.78723e-06)
(0.0333813 -3.50426e-09 -4.68987e-06)
(0.0334211 -7.18263e-09 -5.98395e-06)
(0.033495 -1.15153e-08 -6.06668e-06)
(0.0336245 -1.7577e-08 -3.39807e-06)
(0.0333619 -2.72566e-09 -3.85643e-06)
(0.033381 -3.53088e-09 -6.83076e-06)
(0.0334207 -7.04725e-09 -9.47307e-06)
(0.0334947 -1.13432e-08 -1.13584e-05)
(0.0336243 -1.73742e-08 -1.10732e-05)
(0.0338404 -2.38744e-08 -5.98248e-06)
(0.0333612 -2.62126e-09 -5.14323e-06)
(0.0333804 -3.497e-09 -9.45179e-06)
(0.0334201 -6.78857e-09 -1.37971e-05)
(0.0334941 -1.10158e-08 -1.7981e-05)
(0.0336238 -1.68873e-08 -2.07319e-05)
(0.03384 -2.34133e-08 -1.94953e-05)
(0.0341833 -2.98903e-08 -1.01591e-05)
(0.0333603 -2.73564e-09 -6.6569e-06)
(0.0333793 -3.24296e-09 -1.26064e-05)
(0.033419 -6.41102e-09 -1.90901e-05)
(0.0334929 -1.04953e-08 -2.61877e-05)
(0.0336227 -1.61194e-08 -3.28191e-05)
(0.0338391 -2.248e-08 -3.65004e-05)
(0.0341827 -2.91925e-08 -3.31064e-05)
(0.0347027 -3.30331e-08 -1.66502e-05)
(0.0333588 -2.02276e-09 -8.38114e-06)
(0.0333777 -2.48591e-09 -1.63151e-05)
(0.0334171 -5.90397e-09 -2.54591e-05)
(0.0334908 -9.73968e-09 -3.6232e-05)
(0.0336205 -1.50579e-08 -4.77952e-05)
(0.0338371 -2.11496e-08 -5.77785e-05)
(0.0341811 -2.76755e-08 -6.19828e-05)
(0.0347017 -3.2451e-08 -5.42598e-05)
(0.0354547 -3.2067e-08 -2.63931e-05)
(0.0333567 -2.26785e-09 -1.02623e-05)
(0.0333753 -2.49998e-09 -2.05394e-05)
(0.0334142 -5.31067e-09 -3.2946e-05)
(0.0334874 -8.70621e-09 -4.83148e-05)
(0.0336168 -1.36033e-08 -6.61196e-05)
(0.0338332 -1.93139e-08 -8.41362e-05)
(0.0341776 -2.54568e-08 -9.81084e-05)
(0.034699 -3.04756e-08 -0.000101583)
(0.0354531 -3.24629e-08 -8.60095e-05)
(0.0364993 -2.4049e-08 -4.06085e-05)
(0.0333537 -1.23027e-09 -1.21955e-05)
(0.0333717 -1.50987e-09 -2.51456e-05)
(0.0334097 -4.39301e-09 -4.14695e-05)
(0.033482 -7.33342e-09 -6.2511e-05)
(0.0336105 -1.18067e-08 -8.81525e-05)
(0.0338266 -1.69051e-08 -0.000116373)
(0.034171 -2.25693e-08 -0.000142841)
(0.0346931 -2.75688e-08 -0.000160769)
(0.0354485 -3.03673e-08 -0.000161011)
(0.0364967 -2.75497e-08 -0.000132331)
(0.0378988 -1.01026e-08 -6.09203e-05)
(0.0333497 -7.95379e-10 -1.402e-05)
(0.0333668 -1.54477e-09 -2.98756e-05)
(0.0334032 -3.44657e-09 -5.07574e-05)
(0.0334737 -5.83773e-09 -7.86606e-05)
(0.0336006 -9.57595e-09 -0.00011402)
(0.0338155 -1.37406e-08 -0.000155104)
(0.0341594 -1.85748e-08 -0.000197515)
(0.0346819 -2.31554e-08 -0.000234015)
(0.0354387 -2.62913e-08 -0.000254773)
(0.0364893 -2.60026e-08 -0.000247695)
(0.0378946 -1.92305e-08 -0.00019851)
(0.0397172 7.88497e-09 -8.95612e-05)
(0.0333449 -4.54637e-10 -1.55378e-05)
(0.0333603 -9.57898e-10 -3.43393e-05)
(0.0333942 -2.31377e-09 -6.02852e-05)
(0.0334616 -4.18305e-09 -9.62374e-05)
(0.0335855 -7.09563e-09 -0.000143409)
(0.0337978 -1.04795e-08 -0.000200519)
(0.0341402 -1.45964e-08 -0.000263127)
(0.0346624 -1.86074e-08 -0.000323444)
(0.0354204 -2.21403e-08 -0.000370709)
(0.0364734 -2.39142e-08 -0.000391821)
(0.0378825 -2.25874e-08 -0.000371497)
(0.0397103 -1.57861e-08 -0.000291811)
(0.0420233 1.68091e-08 -0.000129729)
(0.0333393 -1.371e-10 -1.65459e-05)
(0.0333523 -3.34953e-10 -3.80464e-05)
(0.0333824 -8.43095e-10 -6.92593e-05)
(0.0334449 -1.65129e-09 -0.000114234)
(0.0335635 -2.92521e-09 -0.000175333)
(0.033771 -4.46077e-09 -0.000252016)
(0.0341098 -6.34421e-09 -0.000339912)
(0.0346301 -8.25121e-09 -0.000430574)
(0.0353882 -1.01305e-08 -0.000512036)
(0.0364435 -1.16457e-08 -0.000569802)
(0.0378569 -1.22292e-08 -0.000587402)
(0.0396909 -1.15497e-08 -0.000545943)
(0.0420122 -8.66471e-09 -0.000422624)
(0.0448958 1.23627e-08 -0.000186163)
(0.0333626 -2.52678e-09 -1.98205e-07)
(0.0333626 -2.63614e-09 -6.45787e-07)
(0.0333816 -3.28215e-09 -4.85619e-07)
(0.0333625 -2.70768e-09 -1.20897e-06)
(0.0333816 -3.38605e-09 -1.58236e-06)
(0.0334213 -6.9743e-09 -9.80873e-07)
(0.0333624 -2.75707e-09 -1.91379e-06)
(0.0333815 -3.45858e-09 -2.9625e-06)
(0.0334212 -7.13976e-09 -3.19617e-06)
(0.0334951 -1.1387e-08 -1.86176e-06)
(0.0333622 -2.77383e-09 -2.78721e-06)
(0.0333813 -3.51786e-09 -4.6899e-06)
(0.0334211 -7.20805e-09 -5.98395e-06)
(0.033495 -1.15408e-08 -6.0667e-06)
(0.0336245 -1.75837e-08 -3.39809e-06)
(0.0333619 -2.77554e-09 -3.85643e-06)
(0.033381 -3.57881e-09 -6.83079e-06)
(0.0334207 -7.17369e-09 -9.47306e-06)
(0.0334947 -1.15325e-08 -1.13584e-05)
(0.0336243 -1.76324e-08 -1.10732e-05)
(0.0338404 -2.40825e-08 -5.98254e-06)
(0.0333612 -2.71871e-09 -5.14325e-06)
(0.0333804 -3.57676e-09 -9.45179e-06)
(0.0334201 -7.02552e-09 -1.37971e-05)
(0.0334941 -1.13719e-08 -1.7981e-05)
(0.0336238 -1.74143e-08 -2.07319e-05)
(0.03384 -2.40052e-08 -1.94954e-05)
(0.0341833 -3.03051e-08 -1.01592e-05)
(0.0333603 -2.85097e-09 -6.65688e-06)
(0.0333793 -3.39589e-09 -1.26063e-05)
(0.033419 -6.75789e-09 -1.90901e-05)
(0.0334929 -1.10321e-08 -2.61877e-05)
(0.0336227 -1.69336e-08 -3.28191e-05)
(0.0338391 -2.34955e-08 -3.65005e-05)
(0.0341827 -3.01739e-08 -3.31065e-05)
(0.0347027 -3.34205e-08 -1.66504e-05)
(0.0333588 -2.23322e-09 -8.38113e-06)
(0.0333777 -2.74481e-09 -1.6315e-05)
(0.0334171 -6.36133e-09 -2.54591e-05)
(0.0334908 -1.04642e-08 -3.6232e-05)
(0.0336205 -1.61717e-08 -4.77952e-05)
(0.0338371 -2.26077e-08 -5.77786e-05)
(0.0341811 -2.93133e-08 -6.19828e-05)
(0.0347017 -3.36491e-08 -5.42601e-05)
(0.0354547 -3.16385e-08 -2.63935e-05)
(0.0333567 -2.46895e-09 -1.02623e-05)
(0.0333753 -2.75182e-09 -2.05394e-05)
(0.0334142 -5.88364e-09 -3.2946e-05)
(0.0334874 -9.63597e-09 -4.83148e-05)
(0.0336168 -1.50482e-08 -6.61196e-05)
(0.0338332 -2.12603e-08 -8.41362e-05)
(0.0341776 -2.78166e-08 -9.81085e-05)
(0.034699 -3.26895e-08 -0.000101583)
(0.0354531 -3.32605e-08 -8.60099e-05)
(0.0364993 -2.12445e-08 -4.06092e-05)
(0.0333537 -1.43896e-09 -1.21954e-05)
(0.0333717 -1.77184e-09 -2.51455e-05)
(0.0334097 -5.06278e-09 -4.14694e-05)
(0.033482 -8.43725e-09 -6.2511e-05)
(0.0336105 -1.35577e-08 -8.81525e-05)
(0.0338266 -1.9328e-08 -0.000116373)
(0.034171 -2.5621e-08 -0.000142841)
(0.0346931 -3.07843e-08 -0.000160769)
(0.0354485 -3.26646e-08 -0.000161011)
(0.0364967 -2.64291e-08 -0.000132332)
(0.0378988 -1.87853e-09 -6.09214e-05)
(0.0333497 -9.92086e-10 -1.402e-05)
(0.0333668 -1.8931e-09 -2.98756e-05)
(0.0334032 -4.25071e-09 -5.07574e-05)
(0.0334737 -7.18756e-09 -7.86606e-05)
(0.0336006 -1.1783e-08 -0.00011402)
(0.0338155 -1.68456e-08 -0.000155104)
(0.0341594 -2.26326e-08 -0.000197515)
(0.0346819 -2.78043e-08 -0.000234015)
(0.0354387 -3.06314e-08 -0.000254773)
(0.0364893 -2.78763e-08 -0.000247695)
(0.0378946 -1.45118e-08 -0.000198511)
(0.0397172 2.55966e-08 -8.95631e-05)
(0.0333449 -6.18717e-10 -1.55378e-05)
(0.0333603 -1.22366e-09 -3.43393e-05)
(0.0333942 -2.99579e-09 -6.02852e-05)
(0.0334616 -5.38671e-09 -9.62374e-05)
(0.0335855 -9.1565e-09 -0.000143409)
(0.0337978 -1.34326e-08 -0.000200519)
(0.0341402 -1.85733e-08 -0.000263127)
(0.0346624 -2.32509e-08 -0.000323444)
(0.0354204 -2.6658e-08 -0.000370709)
(0.0364734 -2.64536e-08 -0.000391822)
(0.0378825 -1.93946e-08 -0.000371497)
(0.0397103 3.51086e-10 -0.000291813)
(0.0420233 5.48219e-08 -0.000129732)
(0.0333393 -3.09249e-10 -1.65459e-05)
(0.0333523 -7.60124e-10 -3.80464e-05)
(0.0333824 -1.97529e-09 -6.92593e-05)
(0.0334449 -3.80779e-09 -0.000114234)
(0.0335635 -6.74689e-09 -0.000175333)
(0.033771 -1.02343e-08 -0.000252016)
(0.0341098 -1.44826e-08 -0.000339912)
(0.0346301 -1.85922e-08 -0.000430574)
(0.0353882 -2.22941e-08 -0.000512036)
(0.0364435 -2.43699e-08 -0.000569802)
(0.0378569 -2.2885e-08 -0.000587402)
(0.0396909 -1.54745e-08 -0.000545943)
(0.0420122 2.73594e-09 -0.000422628)
(0.0448958 6.48793e-08 -0.000186168)
(0.0333333 -7.16344e-11 -1.68912e-05)
(0.0333431 -1.56325e-10 -4.05013e-05)
(0.0333678 -5.75177e-10 -7.66919e-05)
(0.0334231 -1.37571e-09 -0.000131138)
(0.0335332 -2.56405e-09 -0.000207924)
(0.0337322 -4.12829e-09 -0.000307782)
(0.0340636 -6.08903e-09 -0.000426712)
(0.034579 -8.08261e-09 -0.000555576)
(0.035335 -1.01247e-08 -0.000680878)
(0.0363913 -1.17327e-08 -0.000786251)
(0.0378087 -1.25428e-08 -0.000853506)
(0.0396497 -1.17037e-08 -0.000862662)
(0.0419808 -8.16103e-09 -0.000790324)
(0.0448776 4.71913e-10 -0.000606336)
(0.0484319 3.77132e-08 -0.000266153)
(0.0333626 -2.37907e-09 -1.98192e-07)
(0.0333626 -2.5303e-09 -6.45776e-07)
(0.0333816 -3.13575e-09 -4.85624e-07)
(0.0333625 -2.62488e-09 -1.20896e-06)
(0.0333816 -3.28745e-09 -1.58236e-06)
(0.0334213 -6.71922e-09 -9.80875e-07)
(0.0333624 -2.6881e-09 -1.91378e-06)
(0.0333815 -3.3988e-09 -2.96252e-06)
(0.0334212 -6.97461e-09 -3.19617e-06)
(0.0334951 -1.1097e-08 -1.86177e-06)
(0.0333622 -2.73059e-09 -2.78722e-06)
(0.0333813 -3.48952e-09 -4.68992e-06)
(0.0334211 -7.1362e-09 -5.98395e-06)
(0.033495 -1.14029e-08 -6.06671e-06)
(0.0336245 -1.73275e-08 -3.39811e-06)
(0.0333619 -2.76717e-09 -3.85643e-06)
(0.033381 -3.57242e-09 -6.83081e-06)
(0.0334207 -7.19949e-09 -9.47305e-06)
(0.0334947 -1.15525e-08 -1.13584e-05)
(0.0336243 -1.76213e-08 -1.10732e-05)
(0.0338404 -2.38787e-08 -5.98258e-06)
(0.0333612 -2.78134e-09 -5.14328e-06)
(0.0333804 -3.61002e-09 -9.45178e-06)
(0.0334201 -7.15228e-09 -1.3797e-05)
(0.0334941 -1.1552e-08 -1.7981e-05)
(0.0336238 -1.76625e-08 -2.0732e-05)
(0.03384 -2.41805e-08 -1.94955e-05)
(0.0341833 -3.0094e-08 -1.01593e-05)
(0.0333603 -2.90365e-09 -6.65686e-06)
(0.0333793 -3.48432e-09 -1.26062e-05)
(0.033419 -6.99322e-09 -1.90901e-05)
(0.0334929 -1.13809e-08 -2.61877e-05)
(0.0336227 -1.74572e-08 -3.28191e-05)
(0.0338391 -2.40751e-08 -3.65005e-05)
(0.0341827 -3.052e-08 -3.31067e-05)
(0.0347027 -3.28404e-08 -1.66506e-05)
(0.0333588 -2.39722e-09 -8.38111e-06)
(0.0333777 -2.94853e-09 -1.6315e-05)
(0.0334171 -6.70132e-09 -2.54591e-05)
(0.0334908 -1.0994e-08 -3.6232e-05)
(0.0336205 -1.69751e-08 -4.77952e-05)
(0.0338371 -2.36063e-08 -5.77786e-05)
(0.0341811 -3.02861e-08 -6.19829e-05)
(0.0347017 -3.38892e-08 -5.42604e-05)
(0.0354547 -2.97142e-08 -2.63938e-05)
(0.0333567 -2.60978e-09 -1.02623e-05)
(0.0333753 -2.94729e-09 -2.05393e-05)
(0.0334142 -6.3264e-09 -3.29459e-05)
(0.0334874 -1.03538e-08 -4.83147e-05)
(0.0336168 -1.61609e-08 -6.61196e-05)
(0.0338332 -2.2707e-08 -8.41362e-05)
(0.0341776 -2.94583e-08 -9.81085e-05)
(0.034699 -3.38763e-08 -0.000101583)
(0.0354531 -3.25562e-08 -8.60104e-05)
(0.0364993 -1.60502e-08 -4.06098e-05)
(0.0333537 -1.60939e-09 -1.21954e-05)
(0.0333717 -2.00949e-09 -2.51455e-05)
(0.0334097 -5.61704e-09 -4.14694e-05)
(0.033482 -9.34672e-09 -6.2511e-05)
(0.0336105 -1.49879e-08 -8.81524e-05)
(0.0338266 -2.12699e-08 -0.000116373)
(0.034171 -2.79759e-08 -0.000142841)
(0.0346931 -3.30007e-08 -0.000160769)
(0.0354485 -3.35031e-08 -0.000161011)
(0.0364967 -2.31215e-08 -0.000132332)
(0.0378988 1.00385e-08 -6.09224e-05)
(0.0333497 -1.15986e-09 -1.402e-05)
(0.0333668 -2.16531e-09 -2.98756e-05)
(0.0334032 -4.88224e-09 -5.07574e-05)
(0.0334737 -8.25083e-09 -7.86606e-05)
(0.0336006 -1.3508e-08 -0.00011402)
(0.0338155 -1.92495e-08 -0.000155104)
(0.0341594 -2.56868e-08 -0.000197515)
(0.0346819 -3.10395e-08 -0.000234015)
(0.0354387 -3.2989e-08 -0.000254773)
(0.0364893 -2.68698e-08 -0.000247695)
(0.0378946 -5.41897e-09 -0.000198513)
(0.0397172 5.00516e-08 -8.95648e-05)
(0.0333449 -7.69139e-10 -1.55378e-05)
(0.0333603 -1.50513e-09 -3.43393e-05)
(0.0333942 -3.69526e-09 -6.02851e-05)
(0.0334616 -6.63343e-09 -9.62373e-05)
(0.0335855 -1.12663e-08 -0.000143409)
(0.0337978 -1.6465e-08 -0.000200519)
(0.0341402 -2.26165e-08 -0.000263127)
(0.0346624 -2.79123e-08 -0.000323444)
(0.0354204 -3.10392e-08 -0.000370709)
(0.0364734 -2.84623e-08 -0.000391822)
(0.0378825 -1.49363e-08 -0.000371498)
(0.0397103 1.90315e-08 -0.000291815)
(0.0420233 9.99322e-08 -0.000129735)
(0.0333393 -4.34488e-10 -1.65459e-05)
(0.0333523 -9.88617e-10 -3.80464e-05)
(0.0333824 -2.56581e-09 -6.92593e-05)
(0.0334449 -4.91057e-09 -0.000114234)
(0.0335635 -8.71135e-09 -0.000175333)
(0.033771 -1.31182e-08 -0.000252016)
(0.0341098 -1.84224e-08 -0.000339912)