/*--------------------------------*- C++ -*----------------------------------*\
  =========                 |
  \\      /  F ield         | OpenFOAM: The Open Source CFD Toolbox
   \\    /   O peration     | Website:  https://openfoam.org
    \\  /    A nd           | Version:  7
     \\/     M anipulation  |
\*---------------------------------------------------------------------------*/
FoamFile
{
    version     2.0;
    format      ascii;
    class       surfaceScalarField;
    location    "100";
    object      phi;
}
// * * * * * * * * * * * * * * * * * * * * * * * * * * * * * * * * * * * * * //

dimensions      [0 3 -1 0 0 0 0];

internalField   nonuniform List<scalar> 
127367
(
2.74009e-11
1.99383e-13
2.51184e-12
7.19429e-11
1.73492e-12
2.10558e-11
6.12598e-14
7.51426e-14
6.29928e-14
3.82518e-11
4.8288e-13
2.85851e-12
1.02357e-10
3.0336e-12
3.38854e-11
5.69191e-13
6.54041e-13
5.72967e-13
1.17415e-10
4.38017e-12
2.49009e-11
2.54587e-14
3.68453e-14
1.28452e-14
1.49362e-13
2.24264e-13
1.72263e-13
4.93614e-11
8.09459e-13
2.71076e-12
1.66425e-12
1.76315e-11
1.13173e-10
1.23774e-12
1.25458e-12
1.11048e-12
1.85274e-10
8.21885e-12
4.51966e-11
2.18657e-13
3.35617e-13
1.25243e-13
1.44651e-12
2.04907e-12
1.60696e-12
1.54286e-10
7.42609e-12
2.44052e-11
7.46732e-15
2.73534e-14
2.02472e-15
4.76337e-14
1.23654e-13
6.58309e-14
2.54785e-13
4.30165e-13
2.96795e-13
6.19456e-11
1.17515e-12
2.49499e-12
7.40771e-13
6.59213e-13
1.50202e-12
4.72035e-12
2.53855e-11
2.11881e-10
1.54197e-12
1.58959e-11
1.21043e-10
5.60674e-13
6.42038e-13
2.70531e-13
3.48896e-12
4.06753e-12
3.21937e-12
2.50967e-10
1.4259e-11
4.61123e-11
6.36671e-14
2.48204e-13
3.12172e-14
4.45529e-13
1.15375e-12
6.22693e-13
2.5117e-12
3.98165e-12
2.79454e-12
1.93499e-10
1.08366e-11
2.26755e-11
7.21871e-15
1.95627e-14
5.74491e-16
-6.63337e-16
9.50955e-14
3.12472e-14
6.23474e-14
2.60382e-13
1.73283e-13
3.65527e-13
6.96639e-13
4.09807e-13
7.61141e-11
1.56057e-12
2.18423e-12
3.75613e-13
1.70724e-13
7.55115e-13
2.43725e-12
1.93695e-12
4.49435e-12
6.98743e-13
6.29079e-13
1.71618e-12
8.32338e-12
2.66032e-11
2.91449e-10
4.45081e-12
2.35175e-11
2.32654e-10
3.22945e-12
3.21414e-11
1.32898e-10
1.21349e-13
4.84666e-13
9.96906e-14
1.20989e-12
2.29769e-12
1.27602e-12
6.30802e-12
7.99897e-12
5.68312e-12
3.15624e-10
2.10394e-11
4.36082e-11
5.9622e-14
1.80302e-13
1.55075e-14
-1.04423e-14
8.85966e-13
3.08794e-13
6.03091e-13
2.44478e-12
1.61886e-12
3.6331e-12
6.48657e-12
3.8771e-12
2.37394e-10
1.44286e-11
1.99578e-11
4.90108e-15
1.48606e-14
-1.9824e-16
1.29755e-15
7.24127e-14
2.19623e-14
-1.85695e-14
2.04672e-13
1.05528e-13
8.51065e-14
4.59766e-13
3.25068e-13
4.52156e-13
1.01072e-12
5.07528e-13
9.10048e-11
1.93797e-12
1.83017e-12
2.88296e-13
7.31636e-14
1.35496e-13
1.37801e-12
7.77686e-13
1.66219e-12
3.57554e-13
1.66534e-13
9.29775e-13
4.82764e-12
3.45546e-12
8.28529e-12
2.32728e-12
1.86116e-12
5.38581e-12
1.46778e-12
1.34936e-12
2.12852e-12
1.23812e-11
2.55058e-11
3.67245e-10
7.90187e-12
2.50274e-11
3.24079e-10
9.46442e-12
4.86603e-11
2.67964e-10
7.11478e-12
6.63009e-11
1.47128e-10
1.26509e-13
3.56252e-13
6.15286e-14
-6.45507e-14
1.78007e-12
6.71425e-13
1.69976e-12
4.92969e-12
3.24865e-12
9.29698e-12
1.31052e-11
7.95349e-12
3.87114e-10
2.81803e-11
3.86998e-11
4.04163e-14
1.38444e-13
6.34457e-15
4.04435e-15
6.7937e-13
2.1937e-13
-1.81524e-13
1.92023e-12
9.96297e-13
8.37969e-13
4.3287e-12
3.02393e-12
4.51317e-12
9.44001e-12
4.80475e-12
2.83293e-10
1.79418e-11
1.67625e-11
3.47098e-15
1.18989e-14
-5.08118e-16
-9.73824e-16
5.86363e-14
1.45533e-14
-1.53295e-14
1.62444e-13
7.95252e-14
-3.57508e-14
3.70962e-13
2.30081e-13
1.16638e-13
7.21316e-13
4.97851e-13
4.96449e-13
1.34604e-12
6.03037e-13
1.05351e-10
2.28048e-12
1.45841e-12
2.13256e-13
4.78381e-14
1.53716e-13
1.0751e-12
4.2322e-13
-1.11701e-13
2.75237e-13
7.53597e-14
1.42455e-13
2.98169e-12
1.95634e-12
2.36707e-12
1.32397e-12
7.50749e-13
2.08128e-12
7.69679e-13
3.63917e-13
1.26396e-12
7.93875e-12
4.8654e-12
1.23295e-11
4.6327e-12
3.33676e-12
1.00789e-11
4.98729e-12
4.03446e-12
7.17785e-12
3.21586e-12
3.06502e-12
2.96244e-12
1.66569e-11
2.27798e-11
4.50546e-10
1.17954e-11
2.41603e-11
4.09185e-10
1.69206e-11
5.28414e-11
3.8143e-10
2.12948e-11
1.03959e-10
3.22763e-10
1.62043e-11
1.34707e-10
1.57234e-10
8.08526e-14
2.78852e-13
3.69659e-14
-1.27374e-14
1.37428e-12
4.84104e-13
-5.06794e-13
3.894e-12
2.03239e-12
2.38382e-12
8.77939e-12
6.02862e-12
1.16581e-11
1.9123e-11
9.86588e-12
4.61223e-10
3.51606e-11
3.26442e-11
2.81984e-14
1.12147e-13
1.57233e-15
-1.55601e-14
5.52537e-13
1.47766e-13
-1.58563e-13
1.53095e-12
7.51899e-13
-3.49027e-13
3.49156e-12
2.14671e-12
1.15671e-12
6.79941e-12
4.62449e-12
4.96301e-12
1.25916e-11
5.68849e-12
3.27451e-10
2.11259e-11
1.33756e-11
1.99695e-15
1.03761e-14
-4.73244e-16
-1.5903e-15
5.00647e-14
9.65559e-15
-1.5829e-14
1.36378e-13
5.64561e-14
-3.46725e-14
3.05127e-13
1.80037e-13
-4.69806e-14
6.00928e-13
3.97456e-13
1.4121e-13
1.02817e-12
6.74532e-13
5.0276e-13
1.67528e-12
7.05512e-13
1.17466e-10
2.56572e-12
1.09274e-12
1.6901e-13
3.08196e-14
9.42761e-14
8.33732e-13
3.07581e-13
-3.11059e-14
2.0465e-13
5.01579e-14
1.74145e-13
2.36589e-12
1.23652e-12
-7.04287e-13
1.03445e-12
4.14615e-13
-1.61428e-13
5.91517e-13
1.74006e-13
1.466e-13
5.3321e-12
3.61526e-12
3.33158e-12
2.87488e-12
1.87994e-12
2.99572e-12
2.87352e-12
1.63441e-12
2.92457e-12
1.77243e-12
8.45862e-13
1.86154e-12
1.16046e-11
6.03963e-12
1.55362e-11
7.63749e-12
4.71129e-12
1.5113e-11
1.00007e-11
7.27427e-12
1.37591e-11
1.13185e-11
9.35794e-12
1.08612e-11
7.31981e-12
7.25495e-12
4.59199e-12
2.08355e-11
1.9281e-11
5.36474e-10
1.58991e-11
2.16559e-11
5.02172e-10
2.53524e-11
5.14333e-11
4.83897e-10
3.8494e-11
1.16872e-10
4.75623e-10
5.0079e-11
2.23988e-10
3.92383e-10
3.61641e-11
2.56026e-10
1.55411e-10
5.61727e-14
2.29204e-13
2.16748e-14
-6.44521e-14
1.12724e-12
3.32897e-13
-4.37024e-13
3.1194e-12
1.53717e-12
-9.4878e-13
7.11183e-12
4.2997e-12
3.28243e-12
1.38292e-11
9.19665e-12
1.2849e-11
2.55317e-11
1.16088e-11
5.32349e-10
4.14797e-11
2.61063e-11
1.62081e-14
9.75572e-14
3.7965e-16
-2.00095e-14
4.73105e-13
9.94281e-14
-1.61728e-13
1.28874e-12
5.35863e-13
-3.51832e-13
2.88148e-12
1.67916e-12
-4.58917e-13
5.66511e-12
3.69292e-12
1.40393e-12
9.69452e-12
6.25892e-12
5.01973e-12
1.56815e-11
6.61599e-12
3.64622e-10
2.37731e-11
1.00289e-11
-5.49318e-15
8.35172e-17
1.57866e-14
-3.70738e-15
4.671e-14
6.59035e-15
-1.41035e-14
1.20581e-13
3.95586e-14
-3.43854e-14
2.63649e-13
1.32328e-13
-5.16812e-14
5.10956e-13
3.217e-13
-5.55011e-14
8.87195e-13
5.93937e-13
1.41825e-13
1.3573e-12
8.50713e-13
4.79926e-13
1.97892e-12
8.12394e-13
1.25625e-10
2.77664e-12
7.32284e-13
1.40073e-13
1.95639e-14
6.55465e-14
6.87897e-13
2.13852e-13
-1.01651e-13
1.63003e-13
3.29959e-14
1.02931e-13
1.90149e-12
9.36317e-13
-6.01354e-13
8.04662e-13
3.02292e-13
-5.3453e-14
4.43458e-13
1.17639e-13
2.04562e-13
4.33401e-12
2.58566e-12
-1.29982e-12
2.28349e-12
1.1936e-12
-8.91873e-13
2.24503e-12
9.17415e-13
-2.76334e-13
1.35489e-12
4.3856e-13
1.25586e-13
8.41586e-12
5.50453e-12
4.58193e-12
5.15009e-12
3.46729e-12
4.23164e-12
6.26226e-12
4.07398e-12
4.29456e-12
6.69404e-12
3.81545e-12
4.5795e-12
4.34816e-12
2.07685e-12
2.75634e-12
1.55031e-11
7.07669e-12
1.71444e-11
1.11787e-11
5.85057e-12
1.91173e-11
1.65485e-11
1.03035e-11
2.08877e-11
2.30027e-11
1.70393e-11
2.15691e-11
2.69856e-11
2.30246e-11
1.8185e-11
1.71278e-11
1.69455e-11
6.68281e-12
2.46154e-11
1.54462e-11
6.18827e-10
1.99086e-11
1.83629e-11
5.97675e-10
3.42424e-11
4.63218e-11
5.94374e-10
5.80358e-11
1.15462e-10
6.10365e-10
9.21319e-11
2.65352e-10
6.09616e-10
1.17208e-10
4.61833e-10
4.46224e-10
7.45195e-11
4.49444e-10
1.3795e-10
3.12592e-14
1.99807e-13
1.4349e-14
-6.87478e-14
9.69929e-13
2.27728e-13
-4.51036e-13
2.63962e-12
1.102e-12
-9.55377e-13
5.89148e-12
3.36107e-12
-1.23926e-12
1.15635e-11
7.34576e-12
3.97204e-12
1.97367e-11
1.24236e-11
1.2949e-11
3.17931e-11
1.33662e-11
5.91989e-10
4.67266e-11
1.95957e-11
-4.29311e-15
2.81331e-15
9.35412e-14
-3.40863e-14
4.35264e-13
6.86014e-14
-1.42596e-13
1.14005e-12
3.76613e-13
-3.47719e-13
2.49469e-12
1.236e-12
-5.23876e-13
4.82981e-12
2.98666e-12
-5.43251e-13
8.36854e-12
5.50666e-12
1.40638e-12
1.27924e-11
7.88356e-12
4.77396e-12
1.85239e-11
7.57113e-12
3.89511e-10
2.57271e-11
6.72445e-12
-3.6366e-14
5.46546e-15
7.76952e-14
-5.78629e-15
8.07353e-16
1.72664e-14
3.49922e-15
-1.67339e-14
1.16229e-13
2.76804e-14
-3.07685e-14
2.3909e-13
9.48891e-14
-5.28196e-14
4.52704e-13
2.43411e-13
-6.67961e-14
7.78288e-13
4.97414e-13
-7.29081e-14
1.21387e-12
8.10301e-13
1.08775e-13
1.69352e-12
1.02737e-12
4.32107e-13
2.24598e-12
9.10963e-13
1.28474e-10
2.89901e-12
3.62048e-13
1.22451e-13
1.33215e-14
3.5561e-14
5.93729e-13
1.47527e-13
-1.02541e-13
1.35649e-13
2.13899e-14
7.15113e-14
1.61494e-12
6.73752e-13
-6.24391e-13
6.65604e-13
2.1116e-13
-1.40753e-13
3.54977e-13
7.89008e-14
1.12511e-13
3.59988e-12
2.01998e-12
-1.30489e-12
1.83917e-12
9.04224e-13
-7.5897e-13
1.7542e-12
6.71116e-13
-1.16096e-13
1.03104e-12
3.02272e-13
2.26139e-13
7.05711e-12
4.39611e-12
-1.69098e-12
4.18977e-12
2.4827e-12
-1.62859e-12
4.9751e-12
2.59942e-12
-1.28675e-12
5.22391e-12
2.19576e-12
-5.63412e-13
3.3071e-12
1.18707e-12
-2.04209e-14
1.20189e-11
7.42438e-12
5.5365e-12
8.1352e-12
5.27402e-12
5.8187e-12
1.12392e-11
7.49681e-12
6.11821e-12
1.4673e-11
9.4466e-12
6.99312e-12
1.67066e-11
9.49453e-12
7.44089e-12
1.1e-11
5.28483e-12
3.59932e-12
1.93022e-11
8.08995e-12
1.7249e-11
1.49428e-11
6.84162e-12
2.11191e-11
2.42686e-11
1.28016e-11
2.6593e-11
3.83289e-11
2.42704e-11
3.33636e-11
5.60164e-11
4.26792e-11
3.80302e-11
6.56622e-11
5.70146e-11
2.9662e-11
3.9314e-11
3.55033e-11
6.38506e-12
2.7751e-11
1.1604e-11
6.87746e-10
2.35334e-11
1.47248e-11
6.89077e-10
4.29248e-11
3.93684e-11
7.06914e-10
7.86579e-11
1.04919e-10
7.51438e-10
1.40381e-10
2.69234e-10
8.02474e-10
2.21609e-10
5.85202e-10
7.47004e-10
2.53205e-10
8.62115e-10
4.37721e-10
1.35133e-10
7.34606e-10
1.02538e-10
2.28313e-15
1.30467e-14
1.80186e-13
-9.19157e-14
8.83791e-13
1.5832e-13
-3.92479e-13
2.33942e-12
7.77817e-13
-9.5374e-13
5.11957e-12
2.47995e-12
-1.42338e-12
9.89136e-12
5.93276e-12
-1.46543e-12
1.7091e-11
1.09137e-11
3.97698e-12
2.60341e-11
1.56119e-11
1.22085e-11
3.75236e-11
1.51347e-11
6.31676e-10
5.05939e-11
1.31463e-11
-9.95543e-14
5.35535e-14
4.47708e-13
-4.98919e-15
3.30577e-15
8.94379e-14
-1.52694e-13
1.08037e-12
2.64242e-13
-3.0809e-13
2.26122e-12
8.87401e-13
-5.3444e-13
4.28627e-12
2.26118e-12
-6.77638e-13
7.35808e-12
4.608e-12
-7.20796e-13
1.14467e-11
7.50025e-12
1.06509e-12
1.5945e-11
9.50617e-12
4.27351e-12
2.10141e-11
8.44276e-12
3.97945e-10
2.6858e-11
3.32665e-12
-9.89731e-14
2.10488e-14
1.9962e-13
-5.64372e-14
6.20744e-15
8.77394e-14
4.09929e-14
1.16597e-15
2.45081e-16
1.78195e-14
-1.96419e-15
1.6636e-16
2.87963e-15
4.52964e-16
-3.58221e-14
2.35247e-13
6.73473e-14
-4.91594e-14
4.18814e-13
1.77947e-13
-7.03226e-14
7.05152e-13
3.86878e-13
-8.842e-14
1.09662e-12
7.031e-13
-1.13971e-13
1.57246e-12
1.04533e-12
3.9773e-14
2.03306e-12
1.20056e-12
3.57336e-13
2.46775e-12
9.84899e-13
1.25524e-10
2.92072e-12
-4.1256e-14
1.05428e-14
4.4307e-15
1.0976e-13
5.39181e-13
1.02822e-13
-1.26867e-13
1.1876e-13
1.46655e-14
3.77873e-14
1.43293e-12
4.76826e-13
-5.39766e-13
5.75377e-13
1.46209e-13
-1.37131e-13
2.96906e-13
5.20787e-14
7.75062e-14
3.13634e-12
1.49281e-12
-1.30925e-12
1.56453e-12
6.51787e-13
-7.90358e-13
1.45507e-12
4.71201e-13
-2.33908e-13
8.31799e-13
2.07896e-13
1.03869e-13
6.05086e-12
3.54666e-12
-1.94379e-12
3.48577e-12
1.93883e-12
-1.63549e-12
4.01931e-12
1.9701e-12
-1.10217e-12
4.11608e-12
1.61447e-12
-3.20461e-13
2.5728e-12
8.37824e-13
1.22618e-13
1.04338e-11
6.51337e-12
-1.99758e-12
6.8276e-12
4.21119e-12
-2.11186e-12
9.14697e-12
5.37434e-12
-2.31134e-12
1.16543e-11
6.07348e-12
-2.14571e-12
1.30197e-11
5.647e-12
-1.33642e-12
8.43056e-12
3.22919e-12
-6.80119e-13
1.5849e-11
9.31218e-12
5.54238e-12
1.16205e-11
7.10739e-12
7.02549e-12
1.77685e-11
1.13892e-11
8.42647e-12
2.64153e-11
1.73167e-11
1.01617e-11
3.69566e-11
2.33145e-11
1.2233e-11
4.33005e-11
2.41871e-11
1.09005e-11
2.71838e-11
1.27892e-11
2.94037e-12
2.27661e-11
9.0899e-12
1.61934e-11
1.86068e-11
7.79416e-12
2.1223e-11
3.24715e-11
1.49358e-11
2.94384e-11
5.64187e-11
3.01868e-11
4.2916e-11
9.44302e-11
6.14119e-11
6.05818e-11
1.3983e-10
1.0926e-10
6.7563e-11
1.54568e-10
1.2754e-10
3.62618e-11
8.07309e-11
6.0518e-11
2.68876e-13
3.00594e-11
7.7878e-12
7.33473e-10
2.65379e-11
1.10672e-11
7.65439e-10
5.07673e-11
3.16086e-11
8.14289e-10
9.87849e-11
8.95581e-11
8.92983e-10
1.91418e-10
2.48635e-10
9.94307e-10
3.43818e-10
6.20703e-10
1.02974e-09
4.94561e-10
1.16448e-09
7.91491e-10
4.73628e-10
1.43761e-09
3.43929e-10
2.07846e-10
1.09282e-09
5.45294e-11
-1.57689e-13
1.17461e-13
8.37515e-13
-2.02312e-15
6.87326e-15
1.70347e-13
-3.89615e-13
2.18783e-12
5.46839e-13
-8.3745e-13
4.64297e-12
1.78379e-12
-1.46346e-12
8.8042e-12
4.49614e-12
-1.84781e-12
1.50738e-11
9.12015e-12
-1.95434e-12
2.33597e-11
1.48217e-11
3.02389e-12
3.24032e-11
1.87735e-11
1.07756e-11
4.251e-11
1.67165e-11
6.44686e-10
5.28285e-11
6.50793e-12
-3.03449e-13
1.9593e-13
1.14247e-12
-7.40674e-14
2.77491e-14
4.40895e-13
1.03963e-15
2.4062e-15
8.71576e-14
-3.25968e-13
2.18502e-12
6.30587e-13
-4.91251e-13
3.96164e-12
1.65413e-12
-7.12656e-13
6.67687e-12
3.58473e-12
-8.98515e-13
1.03619e-11
6.50297e-12
-1.14071e-12
1.48122e-11
9.65985e-12
3.56883e-13
1.91125e-11
1.10907e-11
3.50521e-12
2.30708e-11
9.08208e-12
3.88482e-10
2.70546e-11
-3.77047e-13
-2.05249e-13
5.06707e-14
4.10876e-13
-1.62181e-13
2.11863e-14
2.27427e-13
1.19394e-13
-2.9461e-14
6.23931e-15
9.38685e-14
1.73377e-14
1.18064e-15
1.48542e-14
2.51242e-14
3.65861e-15
-7.88261e-17
1.74344e-14
-3.1949e-15
1.52416e-17
3.08766e-15
-2.1876e-15
1.69609e-16
2.39733e-15
-2.114e-15
-5.99714e-14
4.1802e-13
1.28116e-13
-6.82467e-14
6.63107e-13
2.88249e-13
-9.26303e-14
1.01392e-12
5.62232e-13
-1.31105e-13
1.46303e-12
9.43645e-13
-1.9162e-13
1.96976e-12
1.30029e-12
-6.17168e-14
2.37551e-12
1.35455e-12
2.67572e-13
2.6232e-12
1.01486e-12
1.17298e-10
2.83041e-12
-5.02664e-13
7.46772e-14
-1.85726e-13
5.03082e-13
1.12196e-14
5.52434e-15
1.06449e-13
4.65908e-15
-1.15647e-15
1.04235e-13
1.33267e-12
3.35503e-13
-5.22033e-13
5.2177e-13
1.02041e-13
-1.60633e-13
2.60422e-13
3.59214e-14
3.83547e-14
2.84514e-12
1.07511e-12
-1.14453e-12
1.38896e-12
4.61925e-13
-6.79914e-13
1.26026e-12
3.27639e-13
-2.17879e-13
7.01585e-13
1.40241e-13
6.7487e-14
5.39693e-12
2.68967e-12
-2.00638e-12
3.04038e-12
1.43396e-12
-1.64603e-12
3.42512e-12
1.42297e-12
-1.14794e-12
3.42996e-12
1.14243e-12
-4.8232e-13
2.10188e-12
5.91801e-13
-1.7005e-14
9.22264e-12
5.43723e-12
-2.52724e-12
5.86211e-12
3.39553e-12
-2.43498e-12
7.62738e-12
4.19489e-12
-2.34068e-12
9.46932e-12
4.60571e-12
-1.90849e-12
1.04018e-11
4.18196e-12
-1.04671e-12
6.73283e-12
2.35108e-12
-5.30725e-13
1.42518e-11
8.82567e-12
-2.66941e-12
1.00964e-11
6.23057e-12
-2.49291e-12
1.49209e-11
9.0907e-12
-2.98071e-12
2.15047e-11
1.24337e-11
-3.76095e-12
2.93495e-11
1.5138e-11
-4.0296e-12
3.39007e-11
1.48278e-11
-3.53519e-12
2.13962e-11
7.79285e-12
-2.68526e-12
1.9705e-11
1.11735e-11
4.22375e-12
1.532e-11
8.90562e-12
7.03099e-12
2.53845e-11
1.53313e-11
1.01704e-11
4.18178e-11
2.6248e-11
1.40961e-11
6.68711e-11
4.24811e-11
1.85543e-11
9.71149e-11
5.89725e-11
2.0163e-11
1.09586e-10
5.80127e-11
1.06596e-11
6.03211e-11
2.52666e-11
-1.91622e-12
2.57649e-11
9.96841e-12
1.41916e-11
2.19416e-11
8.72377e-12
1.98602e-11
4.04466e-11
1.6945e-11
2.95346e-11
7.56295e-11
3.50831e-11
4.76976e-11
1.3989e-10
7.65735e-11
7.92832e-11
2.39505e-10
1.60383e-10
1.13771e-10
3.36806e-10
2.57075e-10
9.57841e-11
3.222e-10
2.28209e-10
1.99998e-11
1.35963e-10
8.14073e-11
-9.25578e-12
3.13911e-11
3.85671e-12
7.48228e-10
2.87476e-11
7.42952e-12
8.15975e-10
5.72597e-11
2.37721e-11
9.03693e-10
1.16933e-10
7.20798e-11
1.02703e-09
2.41185e-10
2.14002e-10
1.18153e-09
4.74014e-10
5.89354e-10
1.29765e-09
7.86516e-10
1.30722e-09
1.15858e-09
9.48745e-10
2.0087e-09
6.57663e-10
7.40017e-10
2.13404e-09
1.88457e-10
2.67867e-10
1.42072e-09
7.29146e-12
-5.15e-13
3.95985e-13
2.12086e-12
-8.95582e-14
4.99598e-14
8.0992e-13
2.4333e-15
6.76959e-15
1.62184e-13
-8.25692e-13
4.42121e-12
1.26832e-12
-1.33257e-12
8.13705e-12
3.29227e-12
-1.9542e-12
1.37141e-11
7.09738e-12
-2.46035e-12
2.12068e-11
1.28349e-11
-3.11758e-12
3.0167e-11
1.90348e-11
1.05468e-12
3.87474e-11
2.18384e-11
8.63089e-12
4.65924e-11
1.7827e-11
6.2883e-10
5.3213e-11
-7.43464e-13
-6.35842e-13
4.6546e-13
2.34608e-12
-2.2234e-13
9.50594e-14
1.13531e-12
-5.80841e-14
2.99016e-14
4.42022e-13
5.96998e-15
1.47259e-15
8.33733e-14
-5.41436e-13
3.88201e-12
1.19168e-12
-6.80963e-13
6.27176e-12
2.67196e-12
-9.40401e-13
9.59452e-12
5.1999e-12
-1.33359e-12
1.38052e-11
8.7125e-12
-1.9337e-12
1.85198e-11
1.19946e-11
-6.79487e-13
2.22868e-11
1.24926e-11
2.59485e-12
2.44979e-11
9.31141e-12
3.62904e-10
2.62122e-11
-4.61188e-12
-3.65578e-13
9.67894e-14
7.37483e-13
-3.43721e-13
5.00567e-14
4.70418e-13
2.5531e-13
-9.7018e-14
2.39008e-14
2.46264e-13
6.05179e-14
3.98381e-15
3.86656e-14
7.79249e-14
-2.05771e-14
6.3621e-15
9.52874e-14
1.2717e-14
1.10549e-15
1.66428e-14
1.44586e-14
1.11494e-15
1.26153e-14
1.15635e-14
6.00353e-15
-4.39898e-16
1.63919e-14
-4.52112e-15
-5.77959e-17
3.10377e-15
-3.15339e-15
-1.3371e-17
2.68454e-15
-2.46141e-15
1.61222e-16
1.70372e-15
-3.9791e-15
-8.85075e-14
6.6912e-13
2.10613e-13
-9.1609e-14
9.66628e-13
4.27157e-13
-1.32987e-13
1.37996e-12
7.78308e-13
-2.10776e-13
1.8939e-12
1.2303e-12
-3.13315e-13
2.42206e-12
1.56708e-12
-1.81097e-13
2.70211e-12
1.45678e-12
1.93213e-13
2.67964e-12
9.72437e-13
1.05162e-10
2.62225e-12
-1.02713e-12
2.40361e-13
-6.16658e-13
1.26864e-12
7.355e-14
-2.11275e-13
4.84992e-13
3.02238e-14
-9.86862e-14
4.86647e-13
2.67513e-14
5.42129e-15
2.33776e-13
4.73124e-15
-6.74389e-16
1.01236e-13
4.86545e-15
2.8894e-15
9.8914e-14
2.69181e-12
7.6458e-13
-1.10144e-12
1.28856e-12
3.25228e-13
-6.44812e-13
1.14114e-12
2.291e-13
-2.34684e-13
6.17618e-13
9.73881e-14
2.49392e-14
4.98739e-12
1.97089e-12
-1.81882e-12
2.7583e-12
1.0335e-12
-1.43402e-12
3.04285e-12
1.01029e-12
-9.80294e-13
2.98113e-12
7.99483e-13
-4.28281e-13
1.79485e-12
4.0851e-13
-3.39786e-14
8.40603e-12
4.23233e-12
-2.68023e-12
5.23336e-12
2.576e-12
-2.51966e-12
6.66109e-12
3.10551e-12
-2.36228e-12
8.09366e-12
3.33754e-12
-1.96737e-12
8.73516e-12
2.99042e-12
-1.2143e-12
5.60893e-12
1.69288e-12
-5.85936e-13
1.29651e-11
7.63524e-12
-3.37158e-12
8.93541e-12
5.19825e-12
-3.16894e-12
1.28347e-11
7.32454e-12
-3.47835e-12
1.80088e-11
9.69476e-12
-3.93384e-12
2.40828e-11
1.14848e-11
-3.94465e-12
2.76212e-11
1.10777e-11
-3.4938e-12
1.76006e-11
5.83016e-12
-2.56527e-12
1.83769e-11
1.13088e-11
-4.27265e-12
1.3787e-11
8.43242e-12
-3.33823e-12
2.20706e-11
1.34263e-11
-3.51453e-12
3.51432e-11
2.09298e-11
-4.80216e-12
5.44815e-11
3.05362e-11
-6.76944e-12
7.74572e-11
3.85902e-11
-8.13432e-12
8.75519e-11
3.57197e-11
-9.42788e-12
4.95295e-11
1.47147e-11
-6.60832e-12
2.35211e-11
1.29673e-11
1.50464e-12
1.90356e-11
1.06733e-11
5.36213e-12
3.34538e-11
1.91854e-11
1.01697e-11
5.97515e-11
3.52566e-11
1.70399e-11
1.06097e-10
6.41241e-11
2.62458e-11
1.77178e-10
1.06621e-10
3.32337e-11
2.4971e-10
1.41072e-10
2.41999e-11
2.4711e-10
1.14786e-10
-3.77034e-12
1.07941e-10
3.63917e-11
-1.02852e-11
2.82036e-11
1.05606e-11
1.12261e-11
2.48209e-11
9.53194e-12
1.73102e-11
4.76893e-11
1.88764e-11
2.74991e-11
9.42689e-11
3.95148e-11
4.77676e-11
1.88141e-10
8.84667e-11
8.88486e-11
3.58127e-10
2.01424e-10
1.54129e-10
5.86897e-10
3.91691e-10
1.78774e-10
7.13035e-10
4.82641e-10
7.70611e-11
5.46153e-10
3.12937e-10
-1.76655e-11
1.82225e-10
9.22377e-11
-1.58514e-11
3.16176e-11
-4.44149e-13
7.29554e-10
3.00203e-11
3.68011e-12
8.32058e-10
6.20272e-11
1.59647e-11
9.62568e-10
1.31922e-10
5.42744e-11
1.13788e-09
2.85923e-10
1.73036e-10
1.35562e-09
6.00999e-10
5.15321e-10
1.54738e-09
1.1031e-09
1.29402e-09
1.50906e-09
1.54238e-09
2.35199e-09
1.01585e-09
1.5035e-09
2.99654e-09
3.72608e-10
9.59776e-10
2.75396e-09
2.56971e-11
2.9035e-10
1.55817e-09
-3.55359e-11
-1.08266e-12
9.18867e-13
4.34515e-12
-2.84164e-13
1.6421e-13
2.06844e-12
-8.51646e-14
5.47909e-14
7.88979e-13
8.10851e-15
6.25852e-15
1.53788e-13
-1.36111e-12
7.85326e-12
2.37179e-12
-1.84677e-12
1.28789e-11
5.2933e-12
-2.58357e-12
1.96845e-11
1.02628e-11
-3.6631e-12
2.81868e-11
1.71446e-11
-5.30599e-12
3.75935e-11
2.3561e-11
-1.81062e-12
4.50385e-11
2.45234e-11
6.13932e-12
4.93817e-11
1.81139e-11
5.87228e-10
5.15407e-11
-9.02505e-12
-1.11121e-12
8.84898e-13
4.2082e-12
-4.70499e-13
2.23984e-13
2.34393e-12
-1.90046e-13
1.07706e-13
1.15054e-12
-4.46708e-14
3.13144e-14
4.36273e-13
1.05202e-14
3.69489e-16
7.84865e-14
-7.90693e-13
6.21258e-12
1.95303e-12
-9.14097e-13
9.13722e-12
3.95176e-12
-1.35041e-12
1.30388e-11
7.18371e-12
-2.14389e-12
1.78302e-11
1.13353e-11
-3.17e-12
2.27105e-11
1.44278e-11
-1.89383e-12
2.52894e-11
1.34138e-11
1.85067e-12
2.49935e-11
8.87267e-12
3.25525e-10
2.42757e-11
-9.41029e-12
-5.82979e-13
1.60494e-13
1.1884e-12
-6.2182e-13
9.57022e-14
8.47078e-13
4.66582e-13
-2.12334e-13
5.82821e-14
5.12826e-13
1.35545e-13
9.40662e-15
8.00691e-14
1.69819e-13
-7.67263e-14
2.62178e-14
2.53194e-13
4.99401e-14
4.39258e-15
4.38931e-14
5.20034e-14
3.73187e-15
3.29761e-14
4.23317e-14
-1.317e-14
6.37496e-15
9.33207e-14
8.32166e-15
1.10536e-15
1.7382e-14
1.08144e-14
9.81245e-16
1.48332e-14
1.1246e-14
9.75858e-16
9.4016e-15
1.34698e-15
7.28594e-15
-7.15924e-16
1.49922e-14
-5.17033e-15
-1.38646e-16
2.90899e-15
-4.18795e-15
-9.3081e-17
2.74407e-15
-3.11991e-15
-4.95698e-17
2.03459e-15
-2.74285e-15
1.4011e-16
9.07185e-16
-5.02644e-15
-1.24298e-13
9.8457e-13
3.16969e-13
-1.29421e-13
1.33204e-12
6.04502e-13
-2.09503e-13
1.82713e-12
1.05463e-12
-3.44433e-13
2.42639e-12
1.57042e-12
-4.7631e-13
2.93257e-12
1.81299e-12
-2.96816e-13
2.97051e-12
1.46276e-12
1.62082e-13
2.60158e-12
8.31059e-13
9.08329e-11
2.30378e-12
-1.57719e-12
5.49215e-13
-1.29553e-12
2.59583e-12
2.32083e-13
-7.07336e-13
1.22071e-12
9.61472e-14
-3.18341e-13
1.23689e-12
1.64004e-13
-2.65509e-13
1.05812e-12
2.92949e-14
-1.07247e-13
4.6899e-13
3.3224e-14
-9.7805e-14
4.70929e-13
7.05005e-14
-4.03342e-15
5.56577e-13
1.08824e-14
-3.53357e-16
2.22574e-13
5.02372e-15
3.03662e-15
9.6066e-14
4.8812e-15
8.45067e-15
9.3691e-14
4.78093e-12
1.41965e-12
-1.80972e-12
2.60205e-12
7.35248e-13
-1.3552e-12
2.81513e-12
7.12122e-13
-9.00113e-13
2.6959e-12
5.60572e-13
-4.12635e-13
1.59098e-12
2.85371e-13
-5.65491e-14
7.89222e-12
3.1579e-12
-2.51998e-12
4.83565e-12
1.8885e-12
-2.27609e-12
6.04356e-12
2.24065e-12
-2.04684e-12
7.20025e-12
2.37671e-12
-1.6641e-12
7.63789e-12
2.11037e-12
-1.03285e-12
4.86754e-12
1.19174e-12
-4.8431e-13
1.2055e-11
6.10495e-12
-3.54607e-12
8.15096e-12
4.04691e-12
-3.36667e-12
1.14696e-11
5.55939e-12
-3.60852e-12
1.5761e-11
7.18834e-12
-3.96535e-12
2.06917e-11
8.36165e-12
-3.94746e-12
2.34978e-11
8.00922e-12
-3.4072e-12
1.50448e-11
4.22928e-12
-2.2593e-12
1.72016e-11
1.0175e-11
-5.02761e-12
1.25562e-11
7.29121e-12
-4.23371e-12
1.9564e-11
1.11937e-11
-4.53145e-12
3.03337e-11
1.68392e-11
-5.8132e-12
4.5967e-11
2.3755e-11
-7.68953e-12
6.45141e-11
2.92547e-11
-9.1784e-12
7.31417e-11
2.67974e-11
-1.00507e-11
4.21657e-11
1.08887e-11
-6.09019e-12
2.28442e-11
1.39632e-11
-7.28338e-12
1.77641e-11
1.07919e-11
-5.36065e-12
3.01279e-11
1.81435e-11
-4.72959e-12
5.20075e-11
3.08112e-11
-5.65179e-12
8.93048e-11
5.09858e-11
-8.45941e-12
1.45029e-10
7.64312e-11
-1.24613e-11
2.02812e-10
9.19069e-11
-1.74233e-11
2.05165e-10
6.91781e-11
-2.19456e-11
9.23955e-11
2.06123e-11
-1.16752e-11
2.7275e-11
1.45263e-11
-2.4409e-12
2.27004e-11
1.23715e-11
1.92698e-12
4.15333e-11
2.29594e-11
7.74417e-12
7.86867e-11
4.40098e-11
1.69988e-11
1.51619e-10
8.57663e-11
3.19198e-11
2.82135e-10
1.59815e-10
4.90442e-11
4.60422e-10
2.5367e-10
4.71107e-11
5.69483e-10
2.80716e-10
1.82244e-12
4.4553e-10
1.66605e-10
-3.33602e-11
1.4873e-10
3.94606e-11
-1.62505e-11
2.98502e-11
1.06567e-11
7.81059e-12
2.71541e-11
1.00634e-11
1.35609e-11
5.39224e-11
2.05312e-11
2.376e-11
1.11132e-10
4.3646e-11
4.41579e-11
2.34801e-10
9.84448e-11
8.89118e-11
4.84008e-10
2.3115e-10
1.76114e-10
8.87336e-10
5.01888e-10
2.59693e-10
1.25976e-09
7.69939e-10
1.74091e-10
1.2176e-09
6.78656e-10
-2.75606e-12
7.33676e-10
3.52784e-10
-5.2111e-11
1.97758e-10
9.54758e-11
-1.87345e-11
3.0616e-11
-5.35099e-12
6.81186e-10
3.02338e-11
-4.24438e-13
8.11036e-10
6.47656e-11
7.91036e-12
9.80803e-10
1.42893e-10
3.64768e-11
1.21016e-09
3.22703e-10
1.3059e-10
1.49752e-09
7.14653e-10
4.20385e-10
1.77019e-09
1.41387e-09
1.16308e-09
1.82184e-09
2.20128e-09
2.42593e-09
1.37738e-09
2.47764e-09
3.5547e-09
5.96884e-10
1.96188e-09
3.83996e-09
5.1399e-11
1.04192e-09
3.00929e-09
-1.238e-10
2.65024e-10
1.41995e-09
-7.91527e-11
-1.86046e-12
1.73113e-12
7.79025e-12
-6.02134e-13
3.80896e-13
4.2601e-12
-2.85175e-13
1.84025e-13
2.03433e-12
-7.47758e-14
5.86738e-14
7.66669e-13
1.41159e-14
5.44591e-15
1.44747e-13
-1.97123e-12
1.25636e-11
3.86768e-12
-2.48018e-12
1.87416e-11
7.80232e-12
-3.71396e-12
2.66829e-11
1.41303e-11
-5.88993e-12
3.62607e-11
2.22235e-11
-8.69458e-12
4.58844e-11
2.82398e-11
-5.14803e-12
5.09106e-11
2.62487e-11
4.13767e-12
5.02838e-11
1.70839e-11
5.26994e-10
4.76987e-11
-1.8352e-11
-1.73054e-12
1.46384e-12
6.78119e-12
-8.36737e-13
4.27216e-13
4.21989e-12
-4.09494e-13
2.58011e-13
2.39079e-12
-1.62757e-13
1.18648e-13
1.14923e-12
-3.3245e-14
3.22836e-14
4.24433e-13
1.39652e-14
-5.36147e-16
7.23429e-14
-1.10135e-12
9.13433e-12
2.93295e-12
-1.29483e-12
1.25757e-11
5.5803e-12
-2.12478e-12
1.72199e-11
9.70943e-12
-3.49787e-12
2.27671e-11
1.44322e-11
-4.8194e-12
2.74012e-11
1.66591e-11
-3.0638e-12
2.77253e-11
1.34491e-11
1.54637e-12
2.4232e-11
7.5321e-12
2.8155e-10
2.13134e-11
-1.44102e-11
-8.56507e-13
2.4409e-13
1.75748e-12
-1.01966e-12
1.59853e-13
1.36747e-12
7.76444e-13
-3.88448e-13
1.12968e-13
9.27409e-13
2.53432e-13
1.79991e-14
1.44177e-13
3.13812e-13
-1.72385e-13
6.52803e-14
5.31196e-13
1.14955e-13
1.08212e-14
9.15249e-14
1.17661e-13
8.80903e-15
6.83659e-14
9.63755e-14
-6.0407e-14
2.83395e-14
2.51516e-13
4.01201e-14
4.79837e-15
4.64346e-14
4.37049e-14
4.03807e-15
3.93113e-14
4.2611e-14
3.24427e-15
2.47769e-14
1.5286e-14
-1.04985e-14
6.49992e-15
8.96159e-14
6.98735e-15
1.08238e-15
1.70758e-14
7.40643e-15
9.61871e-16
1.57942e-14
8.79833e-15
7.81989e-16
1.18634e-14
7.9525e-15
7.82118e-16
5.75366e-15
-5.04881e-15
8.42771e-15
-9.64714e-16
1.32962e-14
-5.76642e-15
-1.98465e-16
2.64856e-15
-4.71174e-15
-1.81084e-16
2.56522e-15
-3.82816e-15
-1.35514e-16
2.12488e-15
-3.07479e-15
-8.89869e-17
1.21326e-15
-2.95992e-15
1.08801e-16
1.49869e-16
-5.28522e-15
-1.77585e-13
1.36992e-12
4.56678e-13
-1.97779e-13
1.78703e-12
8.42395e-13
-3.49536e-13
2.41318e-12
1.41739e-12
-5.4383e-13
3.09865e-12
1.94819e-12
-6.71464e-13
3.4786e-12
1.97639e-12
-3.8623e-13
3.11148e-12
1.33914e-12
1.69572e-13
2.36914e-12
5.96139e-13
7.59875e-11
1.89978e-12
-2.09694e-12
1.02801e-12
-2.2113e-12
4.65297e-12
5.26473e-13
-1.48417e-12
2.4963e-12
2.20208e-13
-6.74113e-13
2.54374e-12
5.06401e-13
-8.92028e-13
2.65743e-12
9.17666e-14
-3.49435e-13
1.18933e-12
1.0719e-13
-3.29681e-13
1.20743e-12
3.97903e-13
-3.92292e-13
2.49529e-12
6.44399e-14
-1.25179e-13
1.0225e-12
3.2235e-14
-1.09138e-13
4.53113e-13
3.59023e-14
-9.02599e-14
4.55392e-13
2.02004e-13
-6.05698e-14
1.44551e-12
2.78053e-14
-3.29877e-15
5.31719e-13
1.1715e-14
2.51108e-15
2.11385e-13
5.15951e-15
8.38519e-15
9.09721e-14
4.74354e-15
1.48279e-14
8.82355e-14
7.64671e-12
2.30654e-12
-2.61261e-12
4.62143e-12
1.36052e-12
-2.22076e-12
5.68276e-12
1.59526e-12
-1.87753e-12
6.63971e-12
1.67829e-12
-1.45728e-12
6.91285e-12
1.48383e-12
-8.86048e-13
4.3665e-12
8.34742e-13
-3.90237e-13
1.14748e-11
4.6425e-12
-3.38458e-12
7.65144e-12
3.02053e-12
-3.15248e-12
1.05962e-11
4.07869e-12
-3.24068e-12
1.43044e-11
5.19589e-12
-3.40942e-12
1.84611e-11
5.97898e-12
-3.30212e-12
2.07476e-11
5.70186e-12
-2.79278e-12
1.33263e-11
3.0094e-12
-1.77515e-12
1.63096e-11
8.38325e-12
-5.10025e-12
1.1684e-11
5.82983e-12
-4.45675e-12
1.7863e-11
8.71634e-12
-4.82266e-12
2.71551e-11
1.27908e-11
-6.03243e-12
4.03837e-11
1.76514e-11
-7.67181e-12
5.59457e-11
2.1412e-11
-8.78185e-12
6.34481e-11
1.94904e-11
-8.9747e-12
3.71118e-11
7.82431e-12
-5.02964e-12
2.20633e-11
1.31509e-11
-8.08483e-12
1.6644e-11
9.70412e-12
-6.32043e-12
2.74774e-11
1.56773e-11
-6.06674e-12
4.62375e-11
2.56516e-11
-7.57396e-12
7.75536e-11
4.0899e-11
-1.12058e-11
1.23815e-10
5.91514e-11
-1.63723e-11
1.7243e-10
6.91922e-11
-2.11914e-11
1.76808e-10
5.08482e-11
-2.16532e-11
8.12559e-11
1.49248e-11
-9.87511e-12
2.77845e-11
1.66892e-11
-1.193e-11
2.20547e-11
1.33074e-11
-9.15307e-12
3.87823e-11
2.31842e-11
-7.65021e-12
7.09479e-11
4.15168e-11
-7.69641e-12
1.32251e-10
7.46091e-11
-9.90756e-12
2.38769e-10
1.26044e-10
-1.47059e-11
3.83478e-10
1.79518e-10
-2.31275e-11
4.80049e-10
1.79993e-10
-3.88033e-11
3.8523e-10
9.9208e-11
-4.02411e-11
1.30362e-10
2.15431e-11
-1.48497e-11
3.07427e-11
1.55094e-11
-7.02354e-12
2.629e-11
1.38412e-11
-3.04646e-12
4.94686e-11
2.65703e-11
2.76987e-12
9.75409e-11
5.25174e-11
1.28277e-11
1.99382e-10
1.06534e-10
3.165e-11
4.0325e-10
2.1203e-10
6.04628e-11
7.36805e-10
3.76962e-10
7.62826e-11
1.05827e-09
5.06515e-10
2.27986e-11
1.03142e-09
4.1129e-10
-5.66747e-11
6.15595e-10
1.8209e-10
-5.79084e-11
1.61379e-10
3.80994e-11
-1.79708e-11
3.03518e-11
9.97093e-12
5.08773e-12
2.87186e-11
1.01186e-11
9.27068e-12
5.89493e-11
2.15815e-11
1.83268e-11
1.25557e-10
4.7077e-11
3.7665e-11
2.76735e-10
1.07136e-10
8.1434e-11
6.05111e-10
2.52661e-10
1.76942e-10
1.20636e-09
5.75849e-10
3.09671e-10
1.92414e-09
1.02251e-09
2.84263e-10
2.1673e-09
1.11697e-09
4.61128e-11
1.6409e-09
7.6452e-10
-9.35135e-11
7.9765e-10
3.61606e-10
-7.39752e-11
1.75976e-10
8.99816e-11
-1.96668e-11
2.83175e-11
-1.08508e-11
6.11436e-10
2.9271e-11
-5.10466e-12
7.57168e-10
6.52143e-11
-9.11859e-13
9.55456e-10
1.4916e-10
1.80835e-11
1.23134e-09
3.49456e-10
8.78888e-11
1.58808e-09
8.07355e-10
3.18678e-10
1.94579e-09
1.69137e-09
9.64597e-10
2.08147e-09
2.85699e-09
2.25703e-09
1.69915e-09
3.57798e-09
3.73685e-09
8.35576e-10
3.25308e-09
4.53051e-09
8.20854e-11