/*--------------------------------*- C++ -*----------------------------------*\
  =========                 |
  \\      /  F ield         | OpenFOAM: The Open Source CFD Toolbox
   \\    /   O peration     | Website:  https://openfoam.org
    \\  /    A nd           | Version:  7
     \\/     M anipulation  |
\*---------------------------------------------------------------------------*/
FoamFile
{
    version     2.0;
    format      ascii;
    class       volVectorField;
    location    "100";
    object      U;
}
// * * * * * * * * * * * * * * * * * * * * * * * * * * * * * * * * * * * * * //

dimensions      [0 1 -1 0 0 0 0];

internalField   nonuniform List<vector> 
43929
(
(0.000263522 0.000595817 -0.000250247)
(0.000953375 0.00227339 -0.000984615)
(3.99477e-06 0.000303139 -3.97891e-07)
(0.000414335 0.00107475 -0.000272049)
(0.00147402 0.0040139 -0.00164246)
(1.56412e-05 0.00117905 -6.21043e-06)
(0.00158034 0.00429715 -0.00112841)
(7.31056e-09 8.48095e-05 -1.71551e-07)
(2.31064e-05 0.000620431 -8.14313e-07)
(0.000383733 0.00134934 -0.000270349)
(0.00167934 0.00498655 -0.00197491)
(2.8648e-05 0.00215005 -2.33158e-05)
(0.00275609 0.00804468 -0.00216571)
(5.23677e-07 0.000346128 -3.15106e-06)
(9.53857e-05 0.00252754 -1.10932e-05)
(0.00153706 0.00546324 -0.00113912)
(-1.03864e-06 7.66509e-05 -2.16338e-07)
(8.46382e-06 0.000229179 -2.04421e-07)
(4.78038e-05 0.000863206 -9.66547e-07)
(0.00036293 0.00150227 -0.000269587)
(3.66542e-05 0.0027298 -3.56382e-05)
(0.00337523 0.0103363 -0.00279714)
(0.00176587 0.00548363 -0.00214026)
(2.34903e-06 0.000675912 -1.32334e-05)
(0.000188506 0.00488431 -4.69296e-05)
(0.00287333 0.0104277 -0.00224812)
(-2.84698e-06 0.000309158 -1.61084e-06)
(3.66451e-05 0.000957362 -4.49084e-06)
(0.000200401 0.00356043 -1.44918e-05)
(0.00147179 0.00611556 -0.00113514)
(-1.39968e-06 5.0097e-05 -2.41908e-07)
(3.61094e-06 0.000195495 -4.19772e-08)
(3.16987e-05 0.000382921 -1.7127e-07)
(7.19237e-05 0.00104086 -1.04188e-06)
(0.000322694 0.00157726 -0.000269219)
(4.01418e-06 0.00089779 -2.42927e-05)
(0.000251512 0.00641226 -7.96611e-05)
(4.1032e-05 0.00303433 -4.19533e-05)
(0.00367874 0.0135725 -0.00298179)
(0.00368026 0.0115518 -0.00312828)
(0.00185145 0.00607887 -0.00232924)
(-2.31687e-06 0.000594002 -5.08663e-06)
(7.67804e-05 0.00192474 -2.12425e-05)
(0.000405095 0.00701002 -6.44441e-05)
(0.00281379 0.0117774 -0.0022433)
(-4.13218e-06 0.000205432 -2.05393e-06)
(1.8461e-05 0.000811963 -5.36842e-08)
(0.000133165 0.00160911 -4.51078e-06)
(0.000303836 0.0043176 -1.63582e-05)
(0.00131721 0.00643785 -0.00113316)
(-1.63084e-06 3.83292e-05 -2.6964e-07)
(2.99168e-06 0.000139714 -3.89669e-08)
(2.42987e-05 0.000319234 8.78257e-08)
(7.03164e-05 0.00053841 -1.85441e-07)
(9.18762e-05 0.00115877 -1.01336e-06)
(0.000276382 0.00160393 -0.000269045)
(-7.54055e-07 0.000781162 -6.85989e-06)
(0.000105854 0.00259898 -4.07674e-05)
(4.94422e-06 0.00102052 -3.1303e-05)
(0.000548528 0.0093178 -0.000113576)
(0.000286271 0.00724044 -9.89699e-05)
(4.66841e-05 0.00340831 -4.9991e-05)
(0.003663 0.0154274 -0.00298445)
(0.00410218 0.0152669 -0.00338221)
(0.00403211 0.0130492 -0.00353342)
(0.00193997 0.0070208 -0.00258727)
(-4.26946e-06 0.00040409 -6.95895e-06)
(4.60988e-05 0.00161824 9.55371e-07)
(0.000269243 0.00326428 -2.27611e-05)
(0.000621369 0.0085765 -7.44823e-05)
(0.00254773 0.0124538 -0.00223701)
(-4.87782e-06 0.000158517 -2.06148e-06)
(1.64937e-05 0.000584856 -3.1526e-07)
(0.000104378 0.00133644 1.9637e-06)
(0.000292874 0.0022681 -4.90474e-06)
(0.000389428 0.00482079 -1.63515e-05)
(0.00113149 0.00655545 -0.00113134)
(-1.86044e-06 2.92077e-05 -2.79101e-07)
(2.18715e-06 0.000111959 -3.03096e-08)
(2.52829e-05 0.000241014 1.3248e-07)
(6.54255e-05 0.000448907 1.54837e-07)
(0.000117632 0.000680583 -2.18815e-07)
(0.000110083 0.00122773 -9.18748e-07)
(0.000225326 0.00160515 -0.000268973)
(-2.94504e-06 0.000539501 -1.06374e-05)
(6.92249e-05 0.0021727 3.48987e-06)
(3.53577e-07 0.000883765 -7.45872e-06)
(0.00036421 0.00443407 -4.50279e-05)
(0.000122309 0.00297658 -5.34808e-05)
(6.10798e-06 0.00117776 -4.08811e-05)
(0.000848169 0.0114707 -0.000133726)
(0.000628859 0.0105853 -0.000143545)
(0.000330583 0.00828188 -0.000125358)
(5.70122e-05 0.00403014 -6.59057e-05)
(0.00334662 0.0163675 -0.00297663)
(0.00411981 0.0174098 -0.00339195)
(0.00461917 0.0173811 -0.00388574)
(0.00454449 0.0155282 -0.00419816)
(0.0019767 0.00833788 -0.00283656)
(-5.26578e-06 0.000315595 -6.64311e-06)
(4.38795e-05 0.00118009 -1.41483e-07)
(0.00021767 0.00269542 9.73469e-06)
(0.000585207 0.00461909 -2.52142e-05)
(0.000800359 0.00962055 -7.54082e-05)
(0.00220016 0.0127104 -0.00222904)
(-5.66206e-06 0.000122622 -2.07264e-06)
(1.37355e-05 0.00047044 1.57937e-07)
(0.000109148 0.00101428 2.43473e-06)
(0.000274174 0.00188624 3.08056e-06)
(0.000488892 0.00286976 -5.50896e-06)
(0.000465737 0.00511569 -1.49674e-05)
(0.000923997 0.00656464 -0.00113003)
(-1.96642e-06 2.43887e-05 -2.601e-07)
(1.5173e-06 9.1774e-05 -6.12953e-09)
(2.48028e-05 0.000199099 1.72855e-07)
(7.15711e-05 0.000354816 2.40197e-07)
(0.000126012 0.00057793 1.70532e-07)
(0.000167227 0.000798295 -2.29498e-07)
(0.000129269 0.00126589 -8.06953e-07)
(0.000174629 0.00159801 -0.000268936)
(-3.92519e-06 0.000424623 -9.52367e-06)
(6.76529e-05 0.0015981 1.17517e-06)
(-1.95945e-06 0.000614883 -1.25183e-05)
(0.000299985 0.0036474 1.91369e-05)
(8.29187e-05 0.00248159 5.49193e-06)
(2.01582e-06 0.00101435 -7.88811e-06)
(0.000785995 0.00629136 -5.02839e-05)
(0.000417298 0.0050929 -5.9775e-05)
(0.000143717 0.0034647 -7.1451e-05)
(8.10927e-06 0.00145923 -5.87893e-05)
(0.00109623 0.0129094 -0.000136668)
(0.000976318 0.0130714 -0.000170474)
(0.000732554 0.0121964 -0.00018528)
(0.000408743 0.0100794 -0.000179202)
(7.46674e-05 0.00498198 -9.84165e-05)
(0.0029022 0.0167337 -0.00296246)
(0.00378185 0.0185025 -0.00338407)
(0.00468869 0.0199006 -0.00390867)
(0.00545696 0.0209615 -0.00474789)
(0.00513719 0.0192253 -0.00514709)
(0.00193 0.00986695 -0.00292564)
(-6.4169e-06 0.000249018 -6.59811e-06)
(4.00488e-05 0.000954964 2.49045e-06)
(0.000229111 0.00206294 1.21338e-05)
(0.000552636 0.00382642 1.48088e-05)
(0.000973384 0.00585303 -2.82758e-05)
(0.000954273 0.0102346 -6.93241e-05)
(0.00180196 0.0127423 -0.00222281)
(-5.94531e-06 0.00010311 -1.74028e-06)
(1.1379e-05 0.000387866 5.44853e-07)
(0.000107959 0.000839964 3.5143e-06)
(0.000300032 0.00149675 4.38225e-06)
(0.000524436 0.00243291 3.31282e-06)
(0.000694334 0.00336635 -5.60099e-06)
(0.000543954 0.00527879 -1.30915e-05)
(0.000716685 0.0065373 -0.00112893)
(-1.43207e-06 2.20595e-05 9.94818e-07)
(1.23647e-06 8.10989e-05 1.07113e-07)
(2.42517e-05 0.000169714 2.28698e-07)
(7.36779e-05 0.000301156 3.1615e-07)
(0.000142825 0.000476368 2.86827e-07)
(0.000200517 0.000697645 1.69786e-07)
(0.000216382 0.000893116 -1.97724e-07)
(0.00015014 0.00129256 -7.04064e-07)
(0.000125433 0.00159416 -0.000268902)
(-5.18619e-06 0.00033905 -9.45698e-06)
(6.38954e-05 0.00129873 6.75391e-06)
(-2.88554e-06 0.00048578 -1.07857e-05)
(0.000316934 0.00280828 2.34334e-05)
(8.18811e-05 0.00183317 2.35664e-06)
(-4.63714e-07 0.000712016 -1.46781e-05)
(0.000746228 0.0051987 2.8297e-05)
(0.000346686 0.00418175 2.53904e-05)
(0.0001013 0.00287935 8.65746e-06)
(5.644e-06 0.0012456 -7.82925e-06)
(0.00130401 0.00798008 -5.62498e-05)
(0.000897596 0.00723581 -6.69945e-05)
(0.000485751 0.00594841 -8.09641e-05)
(0.000182867 0.00435037 -0.00010757)
(1.17382e-05 0.00194633 -8.84421e-05)
(0.00130439 0.013758 -0.00012594)
(0.00126406 0.0147353 -0.000174981)
(0.00114301 0.0151176 -0.000222141)
(0.000919603 0.0150287 -0.0002724)
(0.000537582 0.0129721 -0.000290292)
(9.83566e-05 0.00627292 -0.000153967)
(0.00238243 0.0167899 -0.00295079)
(0.00328695 0.0189334 -0.00336613)
(0.00433 0.0211949 -0.00390157)
(0.00564668 0.0241722 -0.00481113)
(0.00663953 0.026509 -0.00608629)
(0.00558064 0.0238399 -0.00612506)
(0.00185539 0.0112209 -0.00273939)
(-6.73114e-06 0.000211585 -5.36989e-06)
(3.65311e-05 0.000794064 4.29283e-06)
(0.000229137 0.00171532 1.77341e-05)
(0.000604917 0.00305567 2.13479e-05)
(0.00104595 0.00494998 1.58198e-05)
(0.00137974 0.0068661 -2.86523e-05)
(0.0011048 0.010574 -6.04623e-05)
(0.00139967 0.0126955 -0.00221737)
(-4.69624e-06 9.20471e-05 2.3415e-06)
(1.05697e-05 0.000342607 2.06484e-06)
(0.000106238 0.000718429 4.49396e-06)
(0.000309648 0.00127285 6.12766e-06)
(0.000594016 0.00201171 5.30142e-06)
(0.000832217 0.00293902 3.27735e-06)
(0.000897438 0.00376419 -4.84858e-06)
(0.000627685 0.00539144 -1.12367e-05)
(0.000515016 0.00652232 -0.00112802)
(2.73252e-06 7.94267e-05 4.88129e-06)
(-9.85334e-07 3.9056e-05 4.89637e-06)
(2.39606e-05 0.000154697 4.60789e-07)
(7.44961e-05 0.000264283 4.10361e-07)
(0.000151825 0.000414885 3.96816e-07)
(0.000235328 0.000598077 3.03226e-07)
(0.000283585 0.00080715 1.9249e-07)
(0.000265584 0.000977694 -1.25335e-07)
(0.000170926 0.001324 -6.1151e-07)
(7.61407e-05 0.00160012 -0.000268847)
(-5.49559e-06 0.00028988 -7.4281e-06)
(6.01322e-05 0.00108594 1.00092e-05)
(-4.18804e-06 0.000390054 -1.07138e-05)
(0.000319055 0.0023419 3.46707e-05)
(7.83346e-05 0.00149296 9.96514e-06)
(-1.27214e-06 0.000565069 -1.2021e-05)
(0.000816796 0.00417049 4.06163e-05)
(0.000366888 0.00322939 3.08863e-05)
(0.000101123 0.00213825 4.47279e-06)
(2.82639e-06 0.000887585 -1.74318e-05)
(0.00140239 0.00673898 2.99974e-05)
(0.000854301 0.00597213 3.70787e-05)
(0.000407568 0.00487388 3.44637e-05)
(0.000136415 0.00359638 1.6214e-05)
(1.3055e-05 0.00164015 -4.49512e-06)
(0.00184543 0.00936116 -5.68272e-05)
(0.00148727 0.00918265 -7.48953e-05)
(0.00104089 0.00846498 -9.11982e-05)
(0.000609137 0.00751239 -0.000125231)
(0.000251986 0.00590916 -0.000175265)
(1.93505e-05 0.00274402 -0.000125694)
(0.00150093 0.0142267 -0.000109481)
(0.00150266 0.0157181 -0.000161426)
(0.00148311 0.0170768 -0.00022911)
(0.00144799 0.0187523 -0.000331143)
(0.00124109 0.019725 -0.000460099)
(0.000718334 0.0170933 -0.000497217)
(0.0001153 0.00772175 -0.000197462)
(0.00185264 0.0167345 -0.00294035)
(0.0027016 0.0190055 -0.00335096)
(0.00377413 0.0217133 -0.00387855)
(0.00527345 0.0258454 -0.00480835)
(0.00710666 0.0309451 -0.00627716)
(0.0079144 0.033842 -0.00775204)
(0.00572201 0.0281956 -0.0064849)
(0.00181017 0.0119952 -0.00221894)
(-5.26748e-06 0.000188223 4.63486e-07)
(3.55352e-05 0.000702341 9.57221e-06)
(0.000227353 0.00147447 2.22735e-05)
(0.000626631 0.00260682 3.02168e-05)
(0.00118326 0.00411416 2.5865e-05)
(0.00165216 0.00598625 1.56506e-05)
(0.00177958 0.00767035 -2.47715e-05)
(0.00126126 0.0108041 -5.1425e-05)
(0.00100658 0.012669 -0.00221284)
(1.4856e-05 0.000326091 1.7371e-05)
(-2.46738e-06 9.15517e-05 6.15782e-06)
(0.000105502 0.000653322 7.63296e-06)
(0.000313699 0.00111965 7.83998e-06)
(0.000632089 0.00175507 7.66629e-06)
(0.000975894 0.00252628 5.70656e-06)
(0.00117493 0.00339987 3.72341e-06)
(0.00109993 0.00411659 -3.28901e-06)
(0.000710326 0.00552221 -9.50611e-06)
(0.000312781 0.00654705 -0.00112721)
(2.66786e-05 0.000156708 1.01414e-05)
(1.26636e-05 0.000149557 3.50177e-05)
(-3.21266e-06 3.87501e-05 -1.1888e-06)
(-3.58896e-07 2.03497e-05 1.42525e-06)
(7.48388e-05 0.000246267 7.97195e-07)
(0.000156764 0.000372827 5.33745e-07)
(0.000257471 0.000533863 4.38333e-07)
(0.000344627 0.000717914 3.3948e-07)
(0.000373504 0.000917866 2.66544e-07)
(0.000314881 0.00106902 -1.44562e-08)
(0.000188481 0.0013707 -5.21773e-07)
(2.43713e-05 0.00161792 -0.000268765)
(-4.14346e-06 0.000257962 -1.05949e-06)
(5.91037e-05 0.000961673 1.84264e-05)
(-4.49353e-06 0.00033444 -8.21082e-06)
(0.00031809 0.00201973 4.29671e-05)
(7.45627e-05 0.00125171 1.41252e-05)
(-2.61473e-06 0.000456688 -1.19183e-05)
(0.000848166 0.0035661 5.80798e-05)
(0.000370463 0.00269707 4.59025e-05)
(9.80121e-05 0.00174604 1.50489e-05)
(2.35543e-06 0.000709794 -1.28876e-05)
(0.00158488 0.00562196 4.92089e-05)
(0.000935032 0.00480195 5.31481e-05)
(0.000432133 0.0037779 4.18126e-05)
(0.000138308 0.00269567 1.08605e-05)
(9.72836e-06 0.00119679 -1.65581e-05)
(0.0022077 0.00815564 2.96247e-05)
(0.00159998 0.0077494 3.91628e-05)
(0.000993506 0.0069773 4.96724e-05)
(0.000519192 0.0061341 5.39455e-05)
(0.000201145 0.00484738 3.59594e-05)
(2.52222e-05 0.00227977 1.4196e-05)
(0.00237609 0.0104503 -4.91115e-05)
(0.00210304 0.0107717 -7.55823e-05)
(0.00172206 0.0107491 -0.000101972)
(0.00129741 0.0107209 -0.00014277)
(0.000822448 0.0102971 -0.000215445)
(0.000363939 0.00850089 -0.000278248)
(3.17165e-05 0.00391652 -0.000140921)
(0.00170032 0.0145405 -9.23455e-05)
(0.0017239 0.0162607 -0.000140123)
(0.00176117 0.0182361 -0.000211626)
(0.00188644 0.0212598 -0.000343873)
(0.00198688 0.0248874 -0.000571013)
(0.00173033 0.0267003 -0.000844263)
(0.00088876 0.0218689 -0.000745991)
(0.000112113 0.00887074 -0.000118972)
(0.00133311 0.0167021 -0.00293157)
(0.00210209 0.0189465 -0.00333725)
(0.00310693 0.0218081 -0.00385842)
(0.00462138 0.0265332 -0.00477577)
(0.006775 0.0333199 -0.00629527)
(0.00894044 0.0402622 -0.00829571)
(0.00875752 0.0412754 -0.0089135)
(0.0056861 0.0308853 -0.00565209)
(0.00179287 0.0121258 -0.00139752)
(4.08073e-05 0.000655475 3.11873e-05)
(-2.91161e-06 0.000173785 2.96739e-06)
(0.000226696 0.00133882 3.31278e-05)
(0.000636577 0.00230089 3.81701e-05)
(0.00126099 0.00359937 3.77677e-05)
(0.00193455 0.00516808 2.79897e-05)
(0.00232529 0.00692267 1.79536e-05)
(0.00217544 0.00837442 -1.683e-05)
(0.00141299 0.0110644 -4.28646e-05)
(0.00061179 0.0127182 -0.00220878)
(0.00011334 0.000640799 3.86036e-05)
(2.48239e-05 0.000342391 4.60107e-05)
(-4.5636e-06 8.72253e-05 -4.2495e-07)
(0.000315722 0.00104003 1.30477e-05)
(0.000653251 0.0015801 1.019e-05)
(0.00106815 0.00225873 8.52339e-06)
(0.00142678 0.00303085 6.5002e-06)
(0.00154503 0.00386278 5.21576e-06)
(0.00130202 0.00449513 -1.00865e-06)
(0.000779241 0.00571525 -7.76051e-06)
(0.000100206 0.0066201 -0.00112653)
(8.04637e-05 0.000254222 1.67047e-05)
(7.20102e-05 0.000301046 7.8006e-05)
(7.7064e-06 0.000155066 1.33859e-05)
(8.05334e-06 7.84398e-05 1.99808e-05)
(-4.10046e-06 3.96467e-05 -2.32992e-06)
(-2.28113e-06 2.13197e-05 -1.51909e-06)
(-7.75941e-08 1.32477e-05 -6.60235e-07)
(0.000159822 0.000353306 1.10165e-06)
(0.000271078 0.000489476 6.15759e-07)
(0.000387607 0.000656032 4.94291e-07)
(0.000470786 0.000846918 4.43866e-07)
(0.000471208 0.00104972 4.19126e-07)
(0.000362011 0.00118327 1.35659e-07)
(0.00019977 0.00143556 -4.3449e-07)
(-3.39255e-05 0.0016449 -0.000268682)
(6.40181e-05 0.000890668 4.17411e-05)
(-3.24253e-06 0.000297726 -1.6461e-06)
(-2.22455e-06 0.000236969 1.28909e-06)
(0.000317678 0.00183279 6.02015e-05)
(7.35553e-05 0.00110915 2.43446e-05)
(-2.91553e-06 0.000392849 -8.78767e-06)
(0.000863188 0.00315458 7.27075e-05)
(0.000370204 0.00232975 5.65589e-05)
(9.43648e-05 0.00146864 2.05038e-05)
(9.68721e-07 0.000579775 -1.25242e-05)
(0.00169071 0.00492851 7.24256e-05)
(0.000972112 0.0041108 7.63114e-05)
(0.000437874 0.00316098 6.23235e-05)
(0.000136439 0.00221155 2.77156e-05)
(1.0003e-05 0.000968561 -8.26142e-06)
(0.0025821 0.00706332 5.34222e-05)
(0.00180723 0.006477 6.43664e-05)
(0.00108726 0.00562606 7.12828e-05)
(0.00055211 0.00478631 6.63734e-05)
(0.000208028 0.00369052 3.34995e-05)
(2.2046e-05 0.00172096 7.43367e-06)
(0.00309971 0.00942854 3.41343e-05)
(0.00251447 0.00938171 3.86411e-05)
(0.00185308 0.00906481 5.2249e-05)
(0.0012439 0.00881817 7.63746e-05)
(0.000716167 0.00836694 9.674e-05)
(0.000306467 0.00691749 9.19755e-05)
(3.75623e-05 0.00323516 8.24862e-05)
(0.00289859 0.0113954 -3.35185e-05)
(0.00270529 0.0120206 -6.53071e-05)
(0.00243248 0.0126091 -0.000102832)
(0.00214063 0.0136283 -0.000160173)
(0.0017367 0.0147638 -0.000252561)
(0.00116028 0.0149957 -0.00037663)
(0.000508094 0.0123385 -0.000360224)
(4.15739e-05 0.00526294 -4.75054e-05)
(0.00189071 0.0148889 -7.59302e-05)
(0.00194538 0.0166217 -0.000117741)
(0.00201323 0.018876 -0.000183395)
(0.00223634 0.0227487 -0.000318106)
(0.0026085 0.0283929 -0.000599095)
(0.00285434 0.0342649 -0.00109133)
(0.00227211 0.0351443 -0.00142035)
(0.000932503 0.025752 -0.000690564)
(9.43679e-05 0.00932385 0.000128894)
(0.00081067 0.0167682 -0.00292368)
(0.00151308 0.0189113 -0.00332566)
(0.00241935 0.0217458 -0.00383998)
(0.00381586 0.026677 -0.0047452)
(0.00599903 0.0343393 -0.00624705)
(0.00883296 0.0438702 -0.00840817)
(0.0105384 0.0502992 -0.0101161)
(0.0089913 0.0462837 -0.00831885)
(0.00560974 0.0315758 -0.00369186)
(0.0017873 0.0119429 -0.000510555)
(0.000235977 0.00128184 7.6986e-05)
(4.85654e-05 0.000629504 5.15204e-05)
(-4.33774e-06 0.000164176 -1.26243e-06)
(0.000641458 0.0021314 5.61811e-05)
(0.00130488 0.00324909 4.94853e-05)
(0.00211866 0.00463315 4.21086e-05)
(0.00282001 0.00619434 3.20728e-05)
(0.00304907 0.00785297 2.55186e-05)
(0.00256775 0.00912403 -5.31516e-06)
(0.00153634 0.0114448 -3.41585e-05)
(0.000196238 0.0128608 -0.00220543)
(0.000332321 0.00103834 6.39754e-05)
(0.000145022 0.000685572 0.000103425)
(2.08456e-05 0.000336378 2.50481e-05)
(-5.90201e-06 8.47689e-05 -3.0937e-06)
(0.000666592 0.00149212 1.77838e-05)
(0.0011252 0.00207435 1.18096e-05)
(0.00160491 0.00277403 9.68338e-06)
(0.00194608 0.00357074 8.6156e-06)
(0.00194597 0.00441074 8.20908e-06)
(0.00149443 0.00496782 1.98651e-06)
(0.000821885 0.00598285 -6.0445e-06)
(-0.000139408 0.00673032 -0.00112626)
(0.000171743 0.000369074 2.43428e-05)
(0.000206818 0.000493538 0.00013158)
(7.01349e-05 0.000316063 3.51759e-05)
(4.38596e-05 0.000158281 4.68059e-05)
(4.8289e-06 0.00016374 8.47847e-06)
(3.65634e-06 8.72174e-05 8.95354e-06)
(6.19666e-06 5.16455e-05 1.16095e-05)
(-4.85695e-06 3.75413e-05 -3.23622e-06)
(-2.91044e-06 2.28479e-05 -2.10041e-06)
(-1.89972e-06 1.43481e-05 -1.72116e-06)
(1.03515e-07 7.47174e-06 -2.72673e-06)
(0.000280524 0.000470033 1.37651e-06)
(0.000416047 0.000612131 7.1054e-07)
(0.000544675 0.000792565 6.32446e-07)
(0.00061954 0.00100877 6.65835e-07)
(0.00057666 0.00122555 6.75332e-07)
(0.000400593 0.00132546 3.23817e-07)
(0.000200348 0.00151171 -3.73367e-07)
(-0.000101408 0.00167191 -0.000268637)
(0.000326106 0.00173696 0.00010745)
(7.81576e-05 0.00102409 4.82559e-05)
(6.98144e-05 0.000844755 5.93988e-05)
(-1.82541e-06 0.000349931 -2.04813e-06)
(-1.62565e-06 0.000273572 6.73927e-07)
(-3.27928e-06 0.000224287 -1.99306e-06)
(0.000870239 0.00291799 0.000101261)
(0.000370091 0.00211352 7.74363e-05)
(9.34448e-05 0.00130229 3.30666e-05)
(6.58721e-07 0.000501385 -8.24703e-06)
(0.00175116 0.00445643 9.40237e-05)
(0.000990348 0.00364024 9.51516e-05)
(0.000438819 0.00273566 7.63224e-05)
(0.00013336 0.00187047 3.60768e-05)
(8.59963e-06 0.000803667 -6.55299e-06)
(0.00282896 0.00634448 8.08276e-05)
(0.00192895 0.00568383 9.50432e-05)
(0.00113205 0.00482315 0.000102714)
(0.000562578 0.00401798 9.86468e-05)
(0.000209287 0.00305171 6.3587e-05)
(2.32822e-05 0.00141696 2.37711e-05)
(0.00375533 0.00845952 6.14616e-05)
(0.00293917 0.00813813 6.9962e-05)
(0.00209169 0.0075939 8.62483e-05)
(0.00136078 0.00714656 0.000111041)
(0.000764681 0.00660318 0.000126458)
(0.000324078 0.00539667 0.000115976)
(3.66711e-05 0.00254984 0.000108588)
(0.00405545 0.0106828 4.88732e-05)
(0.00352604 0.0108441 4.46132e-05)
(0.00290613 0.0109787 5.15037e-05)
(0.00230385 0.0114811 7.98617e-05)
(0.00167465 0.0121116 0.000133445)
(0.00103074 0.0121356 0.000190178)
(0.000431012 0.0100497 0.000249273)
(4.09435e-05 0.00441783 0.000241223)
(0.00341353 0.0123948 -1.10595e-05)
(0.00329654 0.0130994 -4.46404e-05)
(0.00312544 0.0140647 -8.88269e-05)
(0.00301767 0.0159858 -0.000161583)
(0.00285221 0.0188008 -0.00028651)
(0.00242599 0.0216501 -0.000467974)
(0.00159699 0.022034 -0.0005691)
(0.000610385 0.0167348 -0.000191692)
(4.02251e-05 0.00620994 0.00023885)
(0.002042 0.0153941 -5.91083e-05)
(0.00215501 0.0170187 -9.61951e-05)
(0.00226117 0.0192983 -0.000153439)
(0.00254051 0.0235702 -0.000274801)
(0.00308589 0.0304881 -0.000555562)
(0.00380673 0.0394917 -0.00117226)
(0.00393238 0.0460657 -0.00199277)
(0.00251895 0.0422709 -0.00161538)
(0.000832962 0.0274191 -2.34974e-05)
(7.92498e-05 0.00923881 0.00036273)
(0.000260202 0.0169568 -0.00291724)
(0.000920343 0.0189868 -0.00331524)
(0.00174212 0.0217074 -0.00382432)
(0.00297578 0.0266131 -0.00471658)
(0.00498207 0.034593 -0.00619394)
(0.00797722 0.0455272 -0.00834923)
(0.0109521 0.0557634 -0.0105329)
(0.0112737 0.0576532 -0.0100535)
(0.00889258 0.0479151 -0.00566576)
(0.00554244 0.0312092 -0.00137359)
(0.00178651 0.0118251 0.000266163)
(0.000661653 0.00207408 0.000128636)
(0.000255232 0.00125078 0.000124171)
(4.57468e-05 0.000608663 4.04921e-05)
(-5.67404e-06 0.000156434 -4.83792e-06)
(0.00133185 0.00305815 7.57098e-05)
(0.00223343 0.00426469 5.733e-05)
(0.00317246 0.00568424 4.79951e-05)
(0.00383564 0.00728116 4.26956e-05)
(0.00382888 0.00894275 4.04772e-05)
(0.0029385 0.0100569 9.67349e-06)
(0.00160669 0.0119705 -2.5619e-05)
(-0.000272926 0.0130745 -0.00220413)
(0.000703594 0.00150715 9.21366e-05)
(0.000414752 0.00112234 0.000173573)
(0.000145108 0.000680452 6.31526e-05)
(1.66009e-05 0.00033649 1.58403e-05)
(-7.0834e-06 8.02589e-05 -4.96094e-06)
(0.001165 0.00198483 2.19319e-05)
(0.00172329 0.0025924 1.36765e-05)
(0.00225133 0.00334658 1.24488e-05)
(0.0025563 0.00424389 1.29416e-05)
(0.00237709 0.00513819 1.31425e-05)
(0.00165089 0.00555527 5.62464e-06)
(0.00081991 0.00629651 -4.78089e-06)
(-0.000416258 0.00683943 -0.00112671)
(0.000303655 0.00049544 3.26948e-05)
(0.000439248 0.000721043 0.000194325)
(0.000214195 0.000521677 6.18489e-05)
(0.000125727 0.000259661 8.03036e-05)
(6.75076e-05 0.000337678 2.52448e-05)
(4.10539e-05 0.000178677 2.47492e-05)
(3.25517e-05 0.000104506 2.96898e-05)
(2.14754e-06 0.000161438 4.8138e-06)
(1.66738e-06 9.64545e-05 5.96165e-06)
(2.0857e-06 6.02128e-05 7.20736e-06)
(4.44789e-06 2.9956e-05 3.20703e-06)
(-5.2062e-06 3.48701e-05 -3.44368e-06)
(-3.4456e-06 2.15973e-05 -2.60324e-06)
(-2.43524e-06 1.60069e-05 -2.08124e-06)
(-1.54047e-06 8.32738e-06 -1.93962e-06)
(1.81872e-07 3.31174e-06 -3.94103e-06)
(0.000437114 0.000594025 1.67411e-06)
(0.000596424 0.000752165 8.98251e-07)
(0.000740952 0.000969872 9.34351e-07)
(0.00079758 0.00123754 1.07272e-06)
(0.000683476 0.0014631 1.06505e-06)
(0.000419236 0.00148942 5.39205e-07)
(0.000183805 0.00158213 -3.72173e-07)
(-0.000176937 0.001685 -0.000268669)
(0.00088943 0.00280812 0.000179609)
(0.000377956 0.0019945 0.000125841)
(0.000339016 0.00167104 0.000148545)
(9.75989e-05 0.0011986 5.75386e-05)
(8.28368e-05 0.000968512 6.49141e-05)
(6.7359e-05 0.000815105 5.20161e-05)
(1.37199e-06 0.000447525 -1.38647e-06)
(-6.30222e-07 0.000322083 1.46962e-07)
(-2.50083e-06 0.000259289 -2.24456e-06)
(-4.46203e-06 0.000213054 -5.56818e-06)
(0.00178735 0.00418706 0.000135528)
(0.000998958 0.00336492 0.000129709)
(0.000439352 0.00248089 0.000101909)
(0.000132623 0.00166096 5.2858e-05)
(8.15956e-06 0.00070079 -4.20566e-07)
(0.0029838 0.0058485 0.000108872)
(0.00199912 0.00514347 0.000122888)
(0.00115493 0.00427628 0.000127512)
(0.000566357 0.00348879 0.000119802)
(0.000207911 0.00260408 7.90638e-05)
(2.1945e-05 0.00120037 3.03088e-05)
(0.00422501 0.00777747 9.22759e-05)
(0.00322096 0.00731695 0.000106099)
(0.00223418 0.00667215 0.000127735)
(0.00142032 0.00614242 0.000160262)
(0.000785251 0.00557522 0.000184181)
(0.000331382 0.00451933 0.000173963)
(3.83296e-05 0.002148 0.00014457)
(0.00509653 0.00992676 8.20787e-05)
(0.0042696 0.00974294 8.06256e-05)
(0.0033945 0.00954211 9.3846e-05)
(0.00259705 0.00965799 0.00013398)
(0.00182993 0.0099025 0.000203665)
(0.0011051 0.00975612 0.00028259)
(0.00046298 0.00811204 0.000376205)
(4.12145e-05 0.00365464 0.000335477)
(0.00508068 0.0121406 7.77951e-05)
(0.00460783 0.0122792 6.40898e-05)
(0.00406893 0.0126872 5.96251e-05)
(0.00359932 0.0139146 7.86668e-05)
(0.00306687 0.0158253 0.000138247)
(0.00234744 0.0177494 0.000247245)
(0.00142213 0.017942 0.000391626)
(0.000501818 0.0139568 0.000615303)
(3.56454e-05 0.00535393 0.000503235)
(0.00389725 0.0136355 1.79679e-05)
(0.00387748 0.0142362 -1.49534e-05)
(0.00380317 0.0153149 -6.07637e-05)
(0.00386861 0.0178166 -0.000139441)
(0.00400508 0.0220501 -0.000289842)
(0.00395677 0.0276444 -0.000544668)
(0.00332011 0.032066 -0.000793645)
(0.00192398 0.0300905 -0.000462687)
(0.000586117 0.0197943 0.000543583)
(3.18691e-05 0.00648812 0.000541278)
(0.00212163 0.0160908 -4.25887e-05)
(0.00231934 0.0175921 -7.40448e-05)
(0.00249299 0.0197573 -0.00012445)
(0.00282946 0.0241049 -0.000228186)
(0.00347043 0.0316444 -0.000477477)
(0.00450311 0.0426571 -0.00109979)
(0.00541153 0.0538602 -0.00226291)
(0.0045916 0.0564498 -0.00260158)
(0.00231926 0.0455617 -0.000654298)
(0.000712569 0.0273339 0.000796721)
(7.49574e-05 0.00908307 0.000467494)
(-0.00036199 0.0172382 -0.00291469)
(0.000295493 0.0192007 -0.00330677)
(0.00105999 0.021795 -0.00381022)
(0.00214434 0.026571 -0.00469203)
(0.00389628 0.0345405 -0.00614236)
(0.00669991 0.0460313 -0.00825105)
(0.0102309 0.0585234 -0.0105373)
(0.0122458 0.0651118 -0.0109263)
(0.0112579 0.0605068 -0.00717409)
(0.00872456 0.0475622 -0.00215519)
(0.00551607 0.0309163 0.000717507)
(0.001788 0.0119006 0.00100951)
(0.00138114 0.00300965 0.000181551)
(0.000709833 0.0020431 0.000209197)
(0.000255208 0.00122034 0.000104714)
(4.12065e-05 0.000593787 2.99504e-05)
(-6.98478e-06 0.000147803 -7.67785e-06)
(0.00231193 0.00406689 9.21263e-05)
(0.00340802 0.00532338 6.64525e-05)
(0.00443632 0.00684059 6.17908e-05)
(0.0050217 0.00862173 6.41476e-05)
(0.00466167 0.0103782 6.48488e-05)
(0.00323624 0.0112134 2.77005e-05)
(0.00158804 0.0125849 -1.92913e-05)
(-0.000813157 0.0132817 -0.00220623)
(0.00124006 0.00202278 0.000121902)
(0.000878256 0.00163968 0.000253454)
(0.000427323 0.00112078 0.00010868)
(0.000141342 0.000688344 4.52361e-05)
(1.23806e-05 0.000329033 9.4505e-06)
(-7.7313e-06 7.48307e-05 -5.74262e-06)
(0.00181109 0.00250718 2.6564e-05)
(0.00246588 0.00318054 1.7324e-05)
(0.00305614 0.00408542 1.83377e-05)
(0.00328356 0.00519016 2.06981e-05)
(0.00281169 0.00611755 2.04943e-05)
(0.00172484 0.00623154 9.74254e-06)
(0.00074754 0.00658507 -4.54515e-06)
(-0.000724772 0.00688883 -0.00112789)
(0.000477841 0.00063184 4.17758e-05)
(0.00078051 0.000971324 0.000267687)
(0.00046445 0.000765494 9.30169e-05)
(0.000267189 0.000379322 0.000119945)
(0.000214581 0.000561168 4.56446e-05)
(0.000128141 0.000295299 4.42937e-05)
(9.31354e-05 0.000171569 5.2256e-05)
(6.40857e-05 0.000337554 1.78323e-05)
(3.91548e-05 0.000199924 1.85487e-05)
(2.94656e-05 0.000123964 2.07743e-05)
(2.25007e-05 6.094e-05 1.2458e-05)
(3.98434e-07 0.000156557 3.54268e-06)
(-1.72828e-07 9.5511e-05 3.59906e-06)
(4.55284e-07 6.92344e-05 4.97776e-06)
(7.8039e-07 3.70089e-05 5.3532e-06)
(2.93284e-06 1.44063e-05 -2.11927e-06)
(-5.40107e-06 3.1368e-05 -3.54846e-06)
(-3.66858e-06 2.00131e-05 -2.67535e-06)
(-2.89091e-06 1.50887e-05 -2.39963e-06)
(-1.99339e-06 9.89723e-06 -2.06777e-06)
(-1.22367e-06 3.66121e-06 -2.13203e-06)
(1.75391e-07 7.50866e-07 -4.40183e-06)
(0.000636669 0.000736097 2.1034e-06)
(0.000830786 0.000938493 1.29545e-06)
(0.000995337 0.00123221 1.54063e-06)
(0.00100646 0.00157191 1.76685e-06)
(0.000772457 0.00177095 1.62487e-06)
(0.000405143 0.00165321 7.6613e-07)
(0.000146269 0.00162109 -4.43555e-07)
(-0.000252122 0.00166481 -0.000268846)
(0.00183857 0.00407422 0.000250162)
(0.00101753 0.00322313 0.000210154)
(0.000922342 0.00272595 0.000250268)
(0.000446609 0.00233062 0.000151382)
(0.000387871 0.00191186 0.000164579)
(0.00033822 0.00162571 0.000136607)
(0.000135709 0.00152332 7.79195e-05)
(0.000100892 0.00113166 7.28783e-05)
(8.05705e-05 0.000934214 5.88774e-05)
(6.30187e-05 0.000790012 4.22934e-05)
(8.01182e-06 0.000629226 6.19991e-06)
(1.80962e-06 0.000413888 3.70214e-07)
(-1.30832e-06 0.000305818 -2.30378e-06)
(-3.58637e-06 0.000246122 -5.69102e-06)
(-5.71481e-06 0.000201276 -8.79803e-06)
(0.00308785 0.00556699 0.000163769)
(0.00204098 0.00482855 0.00017308)
(0.00116614 0.00394957 0.000169825)
(0.000568339 0.00316284 0.000153802)
(0.000207293 0.00231955 0.000102798)
(2.08743e-05 0.0010599 3.90886e-05)
(0.00454022 0.00729367 0.000126221)
(0.00339862 0.00674959 0.000142248)
(0.00231758 0.00604334 0.000164409)
(0.0014525 0.0054576 0.000197646)
(0.000795302 0.00486783 0.000221429)
(0.000333566 0.00390804 0.000207073)
(3.70756e-05 0.00186546 0.000164436)
(0.00589359 0.00934234 0.000118927)
(0.00480398 0.00896579 0.000121205)
(0.00372127 0.00858926 0.000142627)
(0.00277726 0.00850461 0.00019879)
(0.00191676 0.00855006 0.000291911)
(0.00114433 0.00831806 0.000394516)
(0.000477031 0.00692307 0.000495729)
(4.19484e-05 0.00316695 0.000409454)
(0.00665506 0.0117219 0.000123349)
(0.00578772 0.0114227 0.000107819)
(0.00492373 0.011418 0.000108338)
(0.0041982 0.0121367 0.00014592)
(0.00344766 0.0134095 0.000244067)
(0.00255637 0.014726 0.000424193)
(0.00152183 0.0148248 0.00067551)
(0.000530162 0.0117433 0.000939503)
(3.59593e-05 0.00462108 0.000635056)
(0.00616959 0.0140495 0.000124561)
(0.00576553 0.0139403 0.000102181)
(0.00530935 0.0143549 8.60189e-05)
(0.00502473 0.0160727 9.16739e-05)
(0.00475886 0.0191994 0.00013627)
(0.0042325 0.023316 0.000249013)
(0.00319075 0.0265687 0.000443348)
(0.00168612 0.0252492 0.000835324)
(0.000472008 0.0170643 0.00130456)
(2.64871e-05 0.00568297 0.000752231)
(0.00428178 0.0151705 5.26391e-05)
(0.00442143 0.0156456 2.33014e-05)
(0.00446645 0.0166264 -2.05479e-05)
(0.00469482 0.0193727 -9.51053e-05)
(0.0051116 0.0245397 -0.000248976)
(0.00551592 0.0324126 -0.000554137)
(0.0053801 0.0410799 -0.000979224)
(0.00401937 0.0440017 -0.000873102)
(0.00186532 0.0356402 0.000582647)
(0.000485549 0.0206855 0.00143533)
(2.75571e-05 0.00640662 0.000666229)
(0.00208205 0.0169033 -3.0247e-05)
(0.00240158 0.0183821 -5.22837e-05)
(0.00267136 0.0204171 -9.45564e-05)
(0.0030928 0.0246735 -0.000182769)
(0.00380982 0.0323795 -0.000391605)
(0.00499511 0.0444084 -0.000944739)
(0.00646574 0.0587049 -0.00220051)
(0.00660431 0.0669872 -0.00325636)
(0.00436677 0.0615816 -0.0015755)
(0.0019896 0.0457033 0.000890235)
(0.000666114 0.0269329 0.00131842)
(7.85234e-05 0.00906655 0.00050496)
(-0.00107647 0.0175066 -0.00291856)
(-0.000411172 0.0195189 -0.0033034)
(0.000340446 0.0220409 -0.00379882)
(0.00130543 0.0266802 -0.00466987)
(0.00281141 0.0344977 -0.00609727)
(0.00526935 0.0460382 -0.00814799)