/*--------------------------------*- C++ -*----------------------------------*\
  =========                 |
  \\      /  F ield         | OpenFOAM: The Open Source CFD Toolbox
   \\    /   O peration     | Website:  https://openfoam.org
    \\  /    A nd           | Version:  7
     \\/     M anipulation  |
\*---------------------------------------------------------------------------*/
FoamFile
{
    version     2.0;
    format      ascii;
    class       surfaceScalarField;
    location    "118";
    object      phi;
}
// * * * * * * * * * * * * * * * * * * * * * * * * * * * * * * * * * * * * * //

dimensions      [0 3 -1 0 0 0 0];

internalField   nonuniform List<scalar> 
128119
(
-6.53981e-12
1.88726e-10
1.99272e-10
-5.63936e-12
7.46568e-11
1.76358e-10
1.30999e-10
-2.86427e-12
1.76551e-10
1.07335e-10
-1.0019e-12
1.81833e-10
9.84137e-11
-3.31852e-13
1.88403e-10
9.54569e-11
-2.2783e-13
1.95796e-10
-7.28126e-12
2.11565e-10
2.22662e-10
-6.93915e-12
8.40263e-11
1.96344e-10
-1.91908e-12
1.33704e-10
1.8794e-10
-3.00405e-12
1.02304e-10
1.74629e-10
-8.73981e-13
5.0666e-11
1.26566e-10
1.45106e-10
-4.36997e-12
1.96337e-10
1.43592e-10
-1.07087e-12
1.41364e-10
1.19052e-10
-1.72736e-12
2.01716e-10
1.28477e-10
-2.64755e-13
1.52034e-10
1.09144e-10
-7.05219e-13
2.09034e-10
1.21736e-10
-2.05087e-13
1.62329e-10
1.05877e-10
-4.46761e-13
2.17215e-10
1.19023e-10
-9.52245e-14
1.7173e-10
1.17859e-10
-6.89444e-14
1.78576e-10
1.16632e-10
-4.27381e-14
1.81321e-10
-5.86773e-12
2.36208e-10
2.47365e-10
-6.61472e-12
9.39357e-11
2.18524e-10
-3.10766e-12
1.48693e-10
2.09167e-10
-4.08647e-12
1.14018e-10
1.93753e-10
-1.64809e-12
5.64817e-11
1.40636e-10
-5.63053e-13
1.0269e-10
1.75169e-10
-1.62205e-12
1.1021e-10
1.81656e-10
-5.67858e-13
7.8124e-11
1.47739e-10
-4.62108e-13
2.52959e-11
1.01733e-10
1.60729e-10
-4.64659e-12
2.17951e-10
1.59257e-10
-1.75698e-12
1.56817e-10
1.55271e-10
-2.7396e-13
1.14845e-10
1.31849e-10
-2.24556e-12
2.23537e-10
1.42538e-10
-6.06269e-13
1.68664e-10
1.46474e-10
-1.55329e-13
1.27451e-10
1.20886e-10
-1.05162e-12
2.31575e-10
1.35046e-10
-4.10906e-13
1.80071e-10
1.4237e-10
-7.50902e-14
1.39058e-10
1.17273e-10
-6.66161e-13
2.40615e-10
1.32039e-10
-2.0874e-13
1.90511e-10
1.40321e-10
-5.28579e-14
1.4932e-10
1.30748e-10
-1.44019e-13
1.98111e-10
1.38384e-10
-3.18155e-14
1.56855e-10
1.29388e-10
-8.99141e-14
2.01161e-10
1.35114e-10
-2.15194e-14
1.60251e-10
-4.27574e-12
2.62304e-10
2.74122e-10
-5.58263e-12
1.04736e-10
2.42366e-10
-3.2368e-12
1.65083e-10
2.31984e-10
-4.49336e-12
1.26804e-10
2.14903e-10
-1.86742e-12
6.27659e-11
1.55978e-10
-1.07223e-12
1.1389e-10
1.94569e-10
-2.46329e-12
1.22508e-10
2.01518e-10
-1.13874e-12
8.67656e-11
1.6404e-10
-7.63496e-13
2.81239e-11
1.12814e-10
-1.06839e-13
8.28799e-11
1.75188e-10
-7.70002e-13
1.03706e-10
1.82444e-10
-2.96897e-13
9.32582e-11
1.66818e-10
-4.27967e-13
4.92907e-11
1.24172e-10
-4.18376e-14
1.69767e-11
8.47977e-11
1.77733e-10
-4.23999e-12
2.41485e-10
1.76421e-10
-2.19397e-12
1.73815e-10
1.72263e-10
-5.82262e-13
1.274e-10
1.66016e-10
-1.39722e-13
9.54424e-11
1.45755e-10
-2.5352e-12
2.47306e-10
1.57885e-10
-9.20118e-13
1.86852e-10
1.62517e-10
-3.30356e-13
1.41368e-10
1.62189e-10
-5.30762e-14
1.07684e-10
1.33648e-10
-1.34274e-12
2.561e-10
1.49586e-10
-6.16677e-13
1.99467e-10
1.57954e-10
-1.74864e-13
1.54256e-10
1.60194e-10
-4.01497e-14
1.19225e-10
1.29661e-10
-8.7565e-13
2.66061e-10
1.46257e-10
-3.31002e-13
2.11029e-10
1.5568e-10
-1.18325e-13
1.65645e-10
1.58339e-10
-2.19679e-14
1.29387e-10
1.44827e-10
-2.25156e-13
2.19446e-10
1.5353e-10
-7.30807e-14
1.74011e-10
1.5507e-10
-1.40276e-14
1.36914e-10
1.43321e-10
-1.41527e-13
2.22824e-10
1.49901e-10
-4.85901e-14
1.77782e-10
1.49088e-10
-8.01362e-15
1.40422e-10
-3.02642e-12
2.90045e-10
3.02934e-10
-4.40594e-12
1.16334e-10
2.67928e-10
-2.87701e-12
1.82899e-10
2.56778e-10
-4.37065e-12
1.40791e-10
2.37944e-10
-1.7879e-12
6.96033e-11
1.72683e-10
-1.39671e-12
1.26228e-10
2.15601e-10
-2.94824e-12
1.35911e-10
2.23362e-10
-1.51086e-12
9.62291e-11
1.81812e-10
-9.7365e-13
3.1201e-11
1.24987e-10
-3.31382e-13
9.19345e-11
1.94443e-10
-1.23657e-12
1.15099e-10
2.02445e-10
-7.47714e-13
1.0356e-10
1.85175e-10
-7.26874e-13
5.47443e-11
1.37718e-10
-1.4053e-13
1.88447e-11
9.40678e-11
-7.72762e-14
6.94692e-11
1.79504e-10
-2.802e-13
9.29021e-11
1.86272e-10
-2.78101e-13
9.63933e-11
1.79587e-10
-3.46625e-13
6.94218e-11
1.47034e-10
-5.98569e-14
3.54945e-11
1.05715e-10
-4.55752e-14
1.17514e-11
7.30919e-11
1.96149e-10
-3.5869e-12
2.66929e-10
1.95094e-10
-2.38668e-12
1.92338e-10
1.90822e-10
-8.48945e-13
1.41144e-10
1.84201e-10
-2.85054e-13
1.05862e-10
1.77e-10
-4.79515e-14
8.06798e-11
1.60807e-10
-2.62018e-12
2.73071e-10
1.74567e-10
-1.17738e-12
2.06644e-10
1.8002e-10
-5.06562e-13
1.56594e-10
1.79955e-10
-1.34127e-13
1.19448e-10
1.76035e-10
-3.05899e-14
9.18737e-11
1.47463e-10
-1.56085e-12
2.82673e-10
1.65393e-10
-8.11225e-13
2.20563e-10
1.74965e-10
-2.83252e-13
1.70867e-10
1.77736e-10
-9.5058e-14
1.32254e-10
1.74999e-10
-1.65157e-14
1.02582e-10
1.43073e-10
-1.06438e-12
2.93622e-10
1.61714e-10
-4.58254e-13
2.33338e-10
1.72446e-10
-1.90333e-13
1.83482e-10
1.75676e-10
-5.63267e-14
1.43533e-10
1.72426e-10
-9.38765e-15
1.12041e-10
1.60134e-10
-3.1128e-13
2.42642e-10
1.70064e-10
-1.19291e-13
1.92749e-10
1.72047e-10
-3.65774e-14
1.51887e-10
1.66988e-10
-4.10491e-15
1.19017e-10
1.58469e-10
-1.97349e-13
2.46377e-10
1.66045e-10
-7.89289e-14
1.96927e-10
1.6541e-10
-2.20722e-14
1.55783e-10
1.5769e-10
-1.32763e-15
1.22173e-10
-2.14208e-12
3.19671e-10
3.33844e-10
-3.35439e-12
1.28717e-10
2.95328e-10
-2.39873e-12
2.02139e-10
2.83576e-10
-3.92116e-12
1.55932e-10
2.62887e-10
-1.60399e-12
7.69788e-11
1.90766e-10
-1.54951e-12
1.39668e-10
2.38477e-10
-3.089e-12
1.50551e-10
2.47159e-10
-1.68124e-12
1.06549e-10
2.01168e-10
-1.08966e-12
3.45617e-11
1.38237e-10
-5.31906e-13
1.01849e-10
2.15402e-10
-1.59531e-12
1.27567e-10
2.24305e-10
-1.11253e-12
1.14773e-10
2.05182e-10
-9.68735e-13
6.06882e-11
1.52566e-10
-2.36389e-13
2.0879e-11
1.04204e-10
-1.81436e-13
7.70538e-11
1.99186e-10
-5.15931e-13
1.03083e-10
2.06696e-10
-5.68464e-13
1.06973e-10
1.99322e-10
-6.18043e-13
7.70909e-11
1.631e-10
-1.67658e-13
3.93972e-11
1.17274e-10
-9.51574e-14
1.30407e-11
8.10767e-11
-3.08562e-14
5.93472e-11
1.87153e-10
-1.29131e-13
8.16701e-11
1.90865e-10
-1.44275e-13
9.29664e-11
1.89843e-10
-2.81362e-13
8.19697e-11
1.6732e-10
-6.84825e-14
5.37649e-11
1.28832e-10
-5.28982e-14
2.57622e-11
9.17567e-11
-1.13851e-14
8.87498e-12
6.42283e-11
2.15988e-10
-2.91158e-12
2.94287e-10
2.15319e-10
-2.38549e-12
2.12416e-10
2.11004e-10
-1.05174e-12
1.56104e-10
2.04044e-10
-4.27754e-13
1.17264e-10
1.96387e-10
-1.12824e-13
8.94937e-11
1.87636e-10
-2.69063e-14
6.91063e-11
1.77026e-10
-2.54187e-12
3.00851e-10
1.92627e-10
-1.36228e-12
2.28092e-10
1.9905e-10
-6.7277e-13
1.73154e-10
1.99337e-10
-2.23197e-13
1.3231e-10
1.95316e-10
-7.437e-14
1.01912e-10
1.87867e-10
-1.35205e-14
7.9019e-11
1.62344e-10
-1.69727e-12
3.11324e-10
1.82507e-10
-9.83381e-13
2.43412e-10
1.93459e-10
-3.96256e-13
1.8893e-10
1.9688e-10
-1.56077e-13
1.46495e-10
1.94164e-10
-4.45527e-14
1.13795e-10
1.86431e-10
-7.64862e-15
8.85839e-11
1.5752e-10
-1.22216e-12
3.23327e-10
1.78449e-10
-5.85626e-13
2.57497e-10
1.90674e-10
-2.67631e-13
2.02876e-10
1.94597e-10
-9.56553e-14
1.58988e-10
1.91308e-10
-2.77604e-14
1.24291e-10
1.82039e-10
-2.64608e-15
9.6993e-11
1.76706e-10
-4.00713e-13
2.67759e-10
1.8804e-10
-1.70119e-13
2.13122e-10
1.90577e-10
-6.26251e-14
1.68243e-10
1.85274e-10
-1.53805e-14
1.32035e-10
1.73643e-10
1.62056e-16
1.03064e-10
1.7487e-10
-2.5689e-13
2.71879e-10
1.83596e-10
-1.12474e-13
2.17742e-10
1.83225e-10
-3.85284e-14
1.72559e-10
1.74957e-10
-7.98175e-15
1.35539e-10
1.60692e-10
1.54226e-15
1.05544e-10
-1.5273e-12
3.5131e-10
3.66892e-10
-2.50271e-12
1.41876e-10
3.24631e-10
-1.94846e-12
2.2282e-10
3.12389e-10
-3.32109e-12
1.72214e-10
2.89747e-10
-1.39958e-12
8.48882e-11
2.10236e-10
-1.57447e-12
1.54234e-10
2.63249e-10
-2.96903e-12
1.66441e-10
2.72948e-10
-1.69666e-12
1.17734e-10
2.22147e-10
-1.12726e-12
3.82085e-11
1.52595e-10
-6.89991e-13
1.12638e-10
2.38192e-10
-1.82198e-12
1.41156e-10
2.48099e-10
-1.35541e-12
1.26992e-10
2.2696e-10
-1.13582e-12
6.71703e-11
1.68727e-10
-3.21143e-13
2.3093e-11
1.15229e-10
-2.86536e-13
8.53524e-11
2.20645e-10
-7.30311e-13
1.14206e-10
2.28977e-10
-8.36653e-13
1.1852e-10
2.20826e-10
-8.56372e-13
8.54312e-11
1.80678e-10
-2.77981e-13
4.36475e-11
1.29908e-10
-1.45515e-13
1.44471e-11
8.9807e-11
-7.84374e-14
6.58323e-11
2.07656e-10
-2.50685e-13
9.06007e-11
2.11789e-10
-3.17897e-13
1.03162e-10
2.10681e-10
-4.95738e-13
9.09905e-11
1.85637e-10
-1.7964e-13
5.96827e-11
1.42925e-10
-1.12024e-13
2.85912e-11
1.01782e-10
-3.13254e-14
9.84712e-12
7.12495e-11
-1.92324e-14
5.12848e-11
1.95717e-10
-4.71958e-14
7.15202e-11
1.9735e-10
-1.02559e-13
8.60922e-11
1.97842e-10
-1.79095e-13
8.72813e-11
1.8471e-10
-9.48559e-14
6.88615e-11
1.52318e-10
-5.86743e-14
4.12126e-11
1.1344e-10
-1.32888e-14
1.97586e-11
8.08864e-11
-7.74488e-15
6.93069e-12
5.73053e-11
2.37258e-10
-2.31033e-12
3.23563e-10
2.37115e-10
-2.24753e-12
2.3406e-10
2.32858e-10
-1.18378e-12
1.72317e-10
2.25619e-10
-5.58762e-13
1.29666e-10
2.17541e-10
-1.82983e-13
9.91304e-11
2.08186e-10
-6.1103e-14
7.66578e-11
1.97279e-10
-1.22757e-14
5.97064e-11
1.94422e-10
-2.34984e-12
3.30653e-10
2.12084e-10
-1.46927e-12
2.51218e-10
2.19653e-10
-8.18381e-13
1.91092e-10
2.2041e-10
-3.16479e-13
1.46296e-10
2.16354e-10
-1.2325e-13
1.12885e-10
2.08442e-10
-3.57718e-14
8.76559e-11
1.97117e-10
-6.78856e-15
6.83403e-11
1.78302e-10
-1.7523e-12
3.42069e-10
2.00944e-10
-1.12315e-12
2.6804e-10
2.13483e-10
-5.08911e-13
2.0849e-10
2.17692e-10
-2.21938e-13
1.61978e-10
2.15077e-10
-7.69004e-14
1.26047e-10
2.06849e-10
-2.25689e-14
9.82687e-11
1.93976e-10
-2.62548e-15
7.66491e-11
1.73013e-10
-1.34081e-12
3.55198e-10
1.96479e-10
-7.07349e-13
2.83531e-10
2.10409e-10
-3.48423e-13
2.23875e-10
2.15168e-10
-1.39567e-13
1.75792e-10
2.11913e-10
-4.93969e-14
1.37675e-10
2.01974e-10
-1.17746e-14
1.076e-10
1.86797e-10
1.42106e-16
8.38388e-11
1.94562e-10
-4.91095e-13
2.94822e-10
2.07503e-10
-2.24968e-13
2.35181e-10
2.10723e-10
-9.20586e-14
1.86025e-10
2.05229e-10
-2.90647e-14
1.46252e-10
1.92659e-10
-5.05955e-15
1.14338e-10
1.74945e-10
1.76557e-15
8.8809e-11
1.92541e-10
-3.19287e-13
2.99357e-10
2.02599e-10
-1.49072e-13
2.40279e-10
2.02593e-10
-5.73567e-14
1.90798e-10
1.938e-10
-1.63068e-14
1.50135e-10
1.78289e-10
-1.13675e-15
1.17092e-10
1.58428e-10
2.32338e-15
9.04494e-11
-1.09581e-12
3.84968e-10
4.02046e-10
-1.84592e-12
1.55801e-10
3.55813e-10
-1.56893e-12
2.44952e-10
3.43237e-10
-2.70144e-12
1.89621e-10
3.18526e-10
-1.20488e-12
9.33366e-11
2.311e-10
-1.50975e-12
1.69934e-10
2.89936e-10
-2.68356e-12
1.83579e-10
3.00739e-10
-1.60677e-12
1.29783e-10
2.44762e-10
-1.10473e-12
4.21406e-11
1.68073e-10
-8.00238e-13
1.24332e-10
2.6287e-10
-1.91559e-12
1.55899e-10
2.73885e-10
-1.47739e-12
1.40243e-10
2.50561e-10
-1.22473e-12
7.42049e-11
1.8624e-10
-3.90427e-13
2.54927e-11
1.27171e-10
-3.85137e-13
9.43788e-11
2.43977e-10
-9.07063e-13
1.26312e-10
2.53213e-10
-1.05718e-12
1.31091e-10
2.4422e-10
-1.04331e-12
9.45148e-11
1.99803e-10
-3.80975e-13
4.82725e-11
1.4365e-10
-1.94134e-13
1.59772e-11
9.93002e-11
-1.30532e-13
7.29213e-11
2.30024e-10
-3.71181e-13
1.00362e-10
2.34609e-10
-4.93871e-13
1.14284e-10
2.33389e-10
-6.95114e-13
1.00814e-10
2.05642e-10
-2.96634e-13
6.61199e-11
1.58322e-10
-1.72963e-13
3.16741e-11
1.12742e-10
-5.39765e-14
1.0908e-11
7.89217e-11
-4.46704e-14
5.68901e-11
2.17154e-10
-1.05616e-13
7.93404e-11
2.18975e-10
-2.09835e-13
9.55176e-11
2.19541e-10
-3.28393e-13
9.68708e-11
2.0495e-10
-2.02176e-13
7.64343e-11
1.68993e-10
-1.24486e-13
4.5742e-11
1.2584e-10
-3.81037e-14
2.19252e-11
8.97289e-11
-1.87125e-14
7.68954e-12
6.3571e-11
-9.03106e-15
4.46068e-11
2.03966e-10
-2.37083e-14
6.26958e-11
2.04566e-10
-5.05196e-14
7.80487e-11
2.05444e-10
-1.18525e-13
8.66862e-11
1.98556e-10
-9.02533e-14
7.91451e-11
1.74517e-10
-6.68059e-14
5.63564e-11
1.37241e-10
-1.72702e-14
3.24472e-11
1.00769e-10
-8.56476e-15
1.55487e-11
7.2277e-11
-3.02657e-15
5.55624e-12
5.17521e-11
2.59917e-10
-1.81102e-12
3.54703e-10
2.60492e-10
-2.02771e-12
2.57273e-10
2.56407e-10
-1.24727e-12
1.898e-10
2.4898e-10
-6.70253e-13
1.43101e-10
2.40539e-10
-2.55476e-13
1.09609e-10
2.3061e-10
-9.88401e-14
8.49117e-11
2.18884e-10
-2.95823e-14
6.62331e-11
2.04981e-10
-6.27895e-15
5.18483e-11
2.12967e-10
-2.09166e-12
3.62414e-10
2.32952e-10
-1.50195e-12
2.76036e-10
2.4185e-10
-9.34473e-13
2.10428e-10
2.43225e-10
-4.09395e-13
1.61442e-10
2.39225e-10
-1.7613e-13
1.24816e-10
2.30893e-10
-6.13833e-14
9.7094e-11
2.18704e-10
-1.86657e-14
7.58121e-11
2.03064e-10
-2.66292e-15
5.92554e-11
1.9531e-10
-1.73373e-12
3.74852e-10
2.20716e-10
-1.22321e-12
2.94466e-10
2.35056e-10
-6.15557e-13
2.29569e-10
2.40225e-10
-2.90869e-13
1.78743e-10
2.37813e-10
-1.13184e-13
1.39369e-10
2.29128e-10
-4.01331e-14
1.0885e-10
2.15219e-10
-1.00843e-14
8.50312e-11
1.97156e-10
-3.85547e-16
6.62907e-11
1.89524e-10
-1.41524e-12
3.8918e-10
2.15815e-10
-8.17326e-13
3.11458e-10
2.31672e-10
-4.30225e-13
2.46502e-10
2.3744e-10
-1.8742e-13
1.93986e-10
2.34314e-10
-7.4153e-14
1.52225e-10
2.23728e-10
-2.29894e-14
1.19187e-10
2.07254e-10
-4.12925e-15
9.30092e-11
1.86578e-10
1.22801e-15
7.22039e-11
2.13711e-10
-5.79482e-13
3.23851e-10
2.28473e-10
-2.82875e-13
2.58948e-10
2.32534e-10
-1.24669e-13
2.05278e-10
2.26923e-10
-4.50947e-14
1.6171e-10
2.13409e-10
-1.18442e-14
1.2665e-10
1.94103e-10
-3.09337e-16
9.85252e-11
1.7122e-10
2.02011e-15
7.60149e-11
2.11493e-10
-3.83311e-13
3.28828e-10
2.23073e-10
-1.88365e-13
2.64561e-10
2.23563e-10
-7.85143e-14
2.10545e-10
2.14287e-10
-2.62812e-14
1.66004e-10
1.97491e-10
-4.94587e-15
1.29701e-10
1.75777e-10
1.54414e-15
1.00347e-10
1.51692e-10
2.19175e-15
7.67918e-11
-7.87154e-13
4.20557e-10
4.3921e-10
-1.35212e-12
1.70465e-10
3.88781e-10
-1.25958e-12
2.68502e-10
3.76073e-10
-2.13896e-12
2.08114e-10
3.4917e-10
-1.02682e-12
1.02315e-10
2.53319e-10
-1.38862e-12
1.86772e-10
3.18551e-10
-2.3197e-12
2.01955e-10
3.30539e-10
-1.45659e-12
1.42696e-10
2.69017e-10
-1.04049e-12
4.63563e-11
1.84679e-10
-8.62824e-13
1.36941e-10
2.89462e-10
-1.89197e-12
1.71806e-10
3.01685e-10
-1.49544e-12
1.54536e-10
2.76005e-10
-1.2418e-12
8.17965e-11
2.05123e-10
-4.41644e-13
2.80798e-11
1.40044e-10
-4.71026e-13
1.04157e-10
2.69241e-10
-1.03504e-12
1.39433e-10
2.79464e-10
-1.21354e-12
1.44719e-10
2.69565e-10
-1.16837e-12
1.04366e-10
2.20525e-10
-4.68801e-13
5.32846e-11
1.58536e-10
-2.38605e-13
1.7635e-11
1.09581e-10
-1.84794e-13
8.06298e-11
2.54343e-10
-4.84316e-13
1.10979e-10
2.59423e-10
-6.58731e-13
1.26384e-10
2.58084e-10
-8.67906e-13
1.11506e-10
2.27402e-10
-4.10453e-13
7.31219e-11
1.75067e-10
-2.32761e-13
3.50275e-11
1.2466e-10
-7.86028e-14
1.20615e-11
8.72634e-11
-7.28501e-14
6.30158e-11
2.40544e-10
-1.68312e-13
8.78852e-11
2.42564e-10
-3.20904e-13
1.05808e-10
2.43196e-10
-4.75239e-13
1.07318e-10
2.27033e-10
-3.14352e-13
8.46763e-11
1.87198e-10
-1.93247e-13
5.06737e-11
1.39391e-10
-6.63354e-14
2.42875e-11
9.93909e-11
-3.11274e-14
8.51788e-12
7.04162e-11
-2.20713e-14
4.94837e-11
2.26304e-10
-5.51102e-14
6.95508e-11
2.26975e-10
-1.0969e-13
8.65898e-11
2.27962e-10
-2.19294e-13
9.61924e-11
2.2032e-10
-1.82569e-13
8.78434e-11
1.93633e-10
-1.35323e-13
6.25507e-11
1.52252e-10
-4.69143e-14
3.6008e-11
1.11787e-10
-2.23376e-14
1.72527e-11
8.01796e-11
-8.33422e-15
6.16445e-12
5.74118e-11
-4.55641e-15
3.89284e-11
2.10664e-10
-1.03356e-14
5.50404e-11
2.11632e-10
-2.86789e-14
6.99643e-11
2.12679e-10
-6.45466e-14
8.24158e-11
2.09779e-10
-8.27245e-14
8.39622e-11
1.93821e-10
-6.72075e-14
6.92485e-11
1.61692e-10
-2.42433e-14
4.61319e-11
1.23581e-10
-1.05544e-14
2.59208e-11
9.04074e-11
-2.96656e-15
1.25092e-11
6.5327e-11
-1.38391e-15
4.51206e-12
4.72414e-11
2.83888e-10
-1.41188e-12
3.87609e-10
2.85406e-10
-1.77052e-12
2.82007e-10
2.81666e-10
-1.25085e-12
2.08562e-10
2.74152e-10
-7.56253e-13
1.57584e-10
2.6544e-10
-3.26813e-13
1.20958e-10
2.54989e-10
-1.39359e-13
9.38861e-11
2.4246e-10
-4.92571e-14
7.33647e-11
2.27429e-10
-1.55015e-14
5.75175e-11
2.09808e-10
-2.67227e-15
4.51065e-11
2.32599e-10
-1.80741e-12
3.96022e-10
2.55194e-10
-1.47052e-12
3.025e-10
2.65657e-10
-1.01508e-12
2.31176e-10
2.67807e-10
-4.96921e-13
1.77765e-10
2.63988e-10
-2.31479e-13
1.37734e-10
2.55302e-10
-9.00675e-14
1.07355e-10
2.4226e-10
-3.25208e-14
8.39753e-11
2.25301e-10
-8.63674e-15
6.57356e-11
2.05061e-10
-6.92868e-16
5.13512e-11
2.13312e-10
-1.65499e-12
4.09561e-10
2.4179e-10
-1.27978e-12
3.22644e-10
2.58194e-10
-7.1045e-13
2.52183e-10
2.64503e-10
-3.6052e-13
1.96808e-10
2.62429e-10
-1.52817e-13
1.53793e-10
2.53349e-10
-6.02337e-14
1.20354e-10
2.384e-10
-1.91617e-14
9.41873e-11
2.18747e-10
-3.93159e-15
7.35417e-11
1.95724e-10
5.95482e-16
5.71446e-11
2.06998e-10
-1.44414e-12
4.25159e-10
2.36424e-10
-9.09708e-13
3.41232e-10
2.54477e-10
-5.10052e-13
2.70773e-10
2.61436e-10
-2.3822e-13
2.1359e-10
2.58568e-10
-1.01827e-13
1.6798e-10
2.47379e-10
-3.62441e-14
1.31783e-10
2.29577e-10
-9.68816e-15
1.03025e-10
2.07011e-10
-5.18221e-16
8.01032e-11
1.81614e-10
1.40442e-15
6.18081e-11
2.34122e-10
-6.62453e-13
3.54795e-10
2.50963e-10
-3.42508e-13
2.84441e-10
2.56034e-10
-1.60053e-13
2.26022e-10
2.50412e-10
-6.34174e-14
1.78447e-10
2.35969e-10
-2.01675e-14
1.40036e-10
2.15009e-10
-3.37722e-15
1.09135e-10
1.89971e-10
1.41474e-15
8.43326e-11
1.63198e-10
1.73504e-15
6.45067e-11
2.31692e-10
-4.47299e-13
3.60242e-10
2.45032e-10
-2.29829e-13
2.90605e-10
2.46156e-10
-1.0183e-13
2.31822e-10
2.36468e-10
-3.78913e-14
1.83185e-10
2.18368e-10
-9.84823e-15
1.43411e-10
1.9471e-10
3.08604e-17
1.11153e-10
1.68304e-10
2.20801e-15
8.51959e-11
1.41519e-10
1.75251e-15
6.45037e-11
-5.62766e-13
4.57969e-10
4.78273e-10
-9.85963e-13
1.85835e-10
4.2343e-10
-1.00951e-12
2.93396e-10
4.10798e-10
-1.66663e-12
2.27631e-10
3.81571e-10
-8.66515e-13
1.11801e-10
2.76819e-10
-1.23696e-12
2.04716e-10
3.49041e-10
-1.94158e-12
2.21523e-10
3.62286e-10
-1.27952e-12
1.56446e-10
2.94862e-10
-9.50317e-13
5.08457e-11
2.02383e-10
-8.8219e-13
1.50473e-10
3.17984e-10
-1.77925e-12
1.88881e-10
3.31513e-10
-1.43504e-12
1.69873e-10
3.03302e-10
-1.20091e-12
8.99458e-11
2.25386e-10
-4.73872e-13
3.08558e-11
1.53856e-10
-5.39293e-13
1.14697e-10
2.96464e-10
-1.10928e-12
1.53583e-10
3.07759e-10
-1.29886e-12
1.59419e-10
2.96887e-10
-1.22888e-12
1.14995e-10
2.42866e-10
-5.35982e-13
5.86895e-11
1.7458e-10
-2.7675e-13
1.94223e-11
1.2066e-10
-2.38539e-13
8.89778e-11
2.80673e-10
-5.83689e-13
1.2248e-10
2.86293e-10
-7.99745e-13
1.39494e-10
2.8483e-10
-1.00356e-12
1.23093e-10
2.50973e-10
-5.1247e-13
8.07081e-11
1.93203e-10
-2.88329e-13
3.86604e-11
1.37566e-10
-1.04233e-13
1.33106e-11
9.62959e-11
-1.03177e-13
6.96761e-11
2.65973e-10
-2.33026e-13
9.71767e-11
2.6821e-10
-4.30768e-13
1.17e-10
2.68917e-10
-6.1324e-13
1.18681e-10
2.51046e-10
-4.25717e-13
9.36401e-11
2.06995e-10
-2.62037e-13
5.60371e-11
1.54126e-10
-9.7066e-14
2.68559e-11
1.09896e-10
-4.48175e-14
9.41853e-12
7.78585e-11
-3.69038e-14
5.4812e-11
2.50679e-10
-8.97428e-14
7.70402e-11
2.51423e-10
-1.73557e-13
9.59163e-11
2.5252e-10
-3.21094e-13
1.06559e-10
2.44057e-10
-2.79548e-13
9.73133e-11
2.14493e-10
-2.07e-13
6.92941e-11
1.68649e-10
-8.05454e-14
3.98879e-11
1.23824e-10
-3.79899e-14
1.91113e-11
8.88132e-11
-1.45885e-14
6.82844e-12
6.3594e-11
-1.15276e-14
4.31855e-11
2.33734e-10
-2.66012e-14
6.10593e-11
2.34812e-10
-6.28472e-14
7.76181e-11
2.35981e-10
-1.25505e-13
9.14447e-11
2.32771e-10
-1.58119e-13
9.31785e-11
2.1506e-10
-1.323e-13
7.68591e-11
1.7939e-10
-5.843e-14
5.11972e-11
1.37097e-10
-2.7266e-14
2.87631e-11
1.00293e-10
-9.69876e-15
1.38796e-11
7.24712e-11
-4.09781e-15
5.00591e-12
5.24086e-11
-1.86299e-15
3.39905e-11
2.14748e-10
-4.82597e-15
4.83392e-11
2.1737e-10
-1.36876e-14
6.23241e-11
2.19286e-10
-3.62775e-14
7.6243e-11
2.18888e-10
-5.92156e-14
8.40801e-11
2.0972e-10
-6.52536e-14
7.82311e-11
1.84904e-10
-3.11128e-14
5.94466e-11
1.48409e-10
-1.33954e-14
3.77723e-11
1.11743e-10
-3.75878e-15
2.10202e-11
8.19002e-11
-1.08145e-15
1.01784e-11
5.96618e-11
-2.93081e-16
3.68356e-12
4.35582e-11
3.0909e-10
-1.09993e-12
4.22174e-10
3.11771e-10
-1.50832e-12
3.08174e-10
3.08588e-10
-1.2064e-12
2.28568e-10
3.01151e-10
-8.13345e-13
1.73125e-10
2.9227e-10
-3.93284e-13
1.33188e-10
2.81385e-10
-1.81537e-13
1.03604e-10
2.68091e-10
-7.1141e-14
8.11185e-11
2.51925e-10
-2.61233e-14
6.37109e-11
2.32784e-10
-7.31974e-15
5.00398e-11
2.10975e-10
-9.08376e-16
3.91932e-11
2.5325e-10
-1.52676e-12
4.31355e-10
2.78737e-10
-1.38935e-12
3.30516e-10
2.91032e-10
-1.05775e-12
2.533e-10
2.94171e-10
-5.74139e-13
1.95276e-10
2.90669e-10
-2.87312e-13
1.51655e-10
2.81729e-10
-1.21354e-13
1.18466e-10
2.6787e-10
-4.8293e-14
9.28504e-11
2.49568e-10
-1.58e-14
7.2814e-11
2.27517e-10
-3.55671e-15
5.69683e-11
2.02731e-10
2.3089e-16
4.43443e-11
2.32247e-10
-1.53261e-12
4.46072e-10
2.64094e-10
-1.29309e-12
3.52479e-10
2.82854e-10
-7.88355e-13
2.76292e-10
2.90541e-10
-4.28128e-13
2.16186e-10
2.88951e-10
-1.94908e-13
1.69335e-10
2.79574e-10
-8.26933e-14
1.3281e-10
2.63601e-10
-2.98255e-14
1.04142e-10
2.42308e-10
-8.44496e-15
8.14609e-11
2.17157e-10
-8.99167e-16
6.33965e-11
1.89792e-10
8.61732e-16
4.89659e-11
2.25376e-10
-1.42996e-12
4.63013e-10
2.58236e-10
-9.79646e-13
3.72753e-10
2.78782e-10
-5.84505e-13
2.96645e-10
2.87172e-10
-2.90649e-13
2.34617e-10
2.847e-10
-1.32015e-13
1.84955e-10
2.72985e-10
-5.14775e-14
1.45422e-10
2.53846e-10
-1.65113e-14
1.13914e-10
2.29307e-10
-3.04908e-15
8.87293e-11
2.01503e-10
8.45308e-16
6.85713e-11
1.72534e-10
1.21097e-15
5.24706e-11
2.55724e-10
-7.364e-13
3.87552e-10
2.74934e-10
-4.02126e-13
3.11614e-10
2.81239e-10
-1.97643e-13
2.48272e-10
2.7572e-10
-8.38393e-14
1.96479e-10
2.60395e-10
-3.00062e-14
1.5453e-10
2.37738e-10
-7.4167e-15
1.2067e-10
2.10432e-10
1.94385e-16
9.34144e-11
1.8107e-10
1.73491e-15
7.15662e-11
1.51844e-10
1.30993e-15
5.41804e-11
2.53072e-10
-5.09235e-13
3.93494e-10
2.68437e-10
-2.72665e-13
3.18364e-10
2.70388e-10
-1.27087e-13
2.54642e-10
2.60365e-10
-5.10491e-14
2.01697e-10
2.40972e-10
-1.58566e-14
1.58254e-10
2.15293e-10
-2.19366e-15
1.22902e-10
1.86431e-10
1.7572e-15
9.4371e-11
1.57017e-10
2.03056e-15
7.15637e-11
1.29017e-10
1.2627e-15
5.35441e-11
-3.97973e-13
4.9696e-10
5.18983e-10
-7.16383e-13
2.01821e-10
4.59532e-10
-8.0802e-13
3.19554e-10
4.47304e-10
-1.28899e-12
2.48109e-10
4.15621e-10
-7.24383e-13
1.21767e-10
3.01521e-10
-1.07439e-12
2.23702e-10
3.81302e-10
-1.58924e-12
2.42207e-10
3.9587e-10
-1.09831e-12
1.70985e-10
3.22206e-10
-8.47024e-13
5.55923e-11
2.21124e-10
-8.65097e-13
1.64903e-10
3.48384e-10
-1.60941e-12
2.07086e-10
3.63308e-10
-1.32228e-12
1.86222e-10
3.32398e-10
-1.11886e-12
9.86339e-11
2.46991e-10
-4.87509e-13
3.38155e-11
1.68581e-10
-5.86861e-13
1.26007e-10
3.25664e-10
-1.13141e-12
1.68773e-10
3.38114e-10
-1.31603e-12
1.752e-10
3.26203e-10
-1.23004e-12
1.26408e-10
2.66841e-10
-5.79821e-13
6.44906e-11
1.91795e-10
-3.06848e-13
2.13403e-11
1.32546e-10
-2.88931e-13
9.79744e-11
3.09043e-10
-6.63632e-13
1.34878e-10
3.15249e-10
-9.06827e-13
1.5363e-10
3.13655e-10
-1.09447e-12
1.35591e-10
2.76382e-10
-5.9547e-13
8.88875e-11
2.12751e-10
-3.36711e-13
4.25768e-11
1.51474e-10
-1.29723e-13
1.46568e-11
1.06029e-10
-1.34799e-13
7.68881e-11
2.93506e-10
-2.96987e-13
1.07239e-10
2.95978e-10
-5.33517e-13
1.29122e-10
2.96768e-10
-7.3507e-13
1.30992e-10
2.77053e-10
-5.29613e-13
1.0335e-10
2.28435e-10
-3.27505e-13
6.18465e-11
1.70083e-10
-1.29107e-13
2.96373e-11
1.21271e-10
-5.94851e-14
1.03938e-11
8.59168e-11
-5.33937e-14
6.06051e-11
2.77179e-10
-1.26879e-13
8.51833e-11
2.78004e-10
-2.40328e-13
1.06057e-10
2.79219e-10
-4.21162e-13
1.17832e-10
2.69866e-10
-3.77996e-13
1.07611e-10
2.37174e-10
-2.79623e-13
7.6627e-11
1.86478e-10
-1.17208e-13
4.41064e-11
1.36912e-10
-5.52553e-14
2.1132e-11
9.81999e-11
-2.17648e-14
7.55035e-12
7.03154e-11
-1.95681e-14
4.78357e-11
2.58909e-10
-4.51224e-14
6.76342e-11
2.60103e-10
-1.00261e-13
8.59771e-11
2.614e-10
-1.89396e-13
1.01296e-10
2.57846e-10
-2.36541e-13
1.0322e-10
2.38228e-10
-2.00545e-13
8.51441e-11
1.98711e-10
-9.66284e-14
5.67144e-11
1.51861e-10
-4.62769e-14
3.18619e-11
1.11093e-10
-1.76702e-14
1.53746e-11
8.0275e-11
-7.3637e-15
5.54509e-12
5.80522e-11
-5.38016e-15
3.77084e-11
2.38264e-10
-1.35357e-14
5.36261e-11
2.41176e-10
-3.21723e-14
6.91418e-11
2.43306e-10
-7.31248e-14
8.45899e-11
2.42873e-10
-1.13229e-13
9.33003e-11
2.32703e-10
-1.23372e-13
8.68232e-11
2.05154e-10
-6.8134e-14
6.59761e-11
1.64648e-10
-3.31023e-14
4.19163e-11
1.23964e-10
-1.20507e-14
2.33239e-11
9.08572e-11
-4.54198e-15
1.12932e-11
6.61874e-11
-1.48169e-15
4.08669e-12
4.83231e-11
-5.52504e-16
2.9614e-11
2.15352e-10
-1.67577e-15
4.23958e-11
2.20693e-10
-6.57869e-15
5.52714e-11
2.24429e-10
-1.80828e-14
6.93456e-11
2.26201e-10
-3.93661e-14
8.08182e-11
2.22189e-10
-5.39732e-14
8.26922e-11
2.05313e-10
-3.77624e-14
7.07174e-11
1.73671e-10
-1.70851e-14
5.03407e-11
1.35857e-10
-4.94482e-15
3.10741e-11
1.01694e-10
-1.35806e-15
1.71824e-11
7.48975e-11
1.51317e-16
8.31895e-12
5.50262e-11
2.24921e-16
3.0016e-12
4.05563e-11
3.35355e-10
-8.59406e-13
4.58175e-10
3.39496e-10
-1.26188e-12
3.35681e-10
3.37084e-10
-1.12704e-12
2.49746e-10
3.2993e-10
-8.40759e-13
1.89697e-10
3.21046e-10
-4.51336e-13
1.46309e-10
3.09824e-10
-2.23918e-13
1.14075e-10
2.95842e-10
-9.49115e-14
8.95141e-11
2.78556e-10
-3.81339e-14
7.04444e-11
2.57856e-10
-1.28108e-14
5.54282e-11
2.34079e-10
-3.13797e-15
4.34806e-11
2.08009e-10
-4.62673e-17
3.39144e-11
2.74781e-10
-1.2687e-12
4.68172e-10
3.035e-10
-1.27438e-12
3.59987e-10
3.17891e-10
-1.06365e-12
2.76725e-10
3.22272e-10
-6.36752e-13
2.13945e-10
3.19284e-10
-3.41323e-13
1.66587e-10
3.10201e-10
-1.54533e-13
1.30438e-10
2.95598e-10
-6.5851e-14
1.0246e-10
2.7595e-10
-2.41442e-14
8.05098e-11
2.52022e-10
-7.12568e-15
6.31029e-11
2.24931e-10
-9.91875e-16
4.91959e-11
1.96083e-10
5.45815e-16
3.80527e-11
2.5199e-10
-1.38361e-12
4.84135e-10
2.87553e-10
-1.26703e-12
3.83868e-10
3.08955e-10
-8.45214e-13
3.01816e-10
3.18293e-10
-4.90647e-13
2.36843e-10
3.17397e-10
-2.38289e-13
1.86005e-10
3.07829e-10
-1.07187e-13
1.4623e-10
2.90887e-10
-4.2034e-14
1.1492e-10
2.67922e-10
-1.39176e-14
9.00707e-11
2.40547e-10
-2.97816e-15
7.02235e-11
2.10576e-10
3.46848e-16
5.43239e-11
1.79893e-10
7.94451e-16
4.16066e-11
2.44535e-10
-1.37846e-12
5.02486e-10
2.81178e-10
-1.0239e-12
4.05915e-10
3.04508e-10
-6.50118e-13
3.24034e-10
3.14602e-10
-3.4302e-13
2.57029e-10
3.12726e-10
-1.64187e-13
2.03161e-10
3.00574e-10
-6.85252e-14
1.60117e-10
2.80122e-10
-2.45868e-14
1.25703e-10
2.53548e-10
-6.35088e-15
9.81076e-11
2.23206e-10
-1.89503e-16
7.59557e-11
1.91428e-10
1.15291e-15
5.82129e-11
1.60222e-10
9.04121e-16
4.40912e-11
2.78445e-10
-7.97861e-13
4.22012e-10
3.00305e-10
-4.59668e-13
3.40377e-10
3.08102e-10
-2.36615e-13
2.71987e-10
3.02862e-10
-1.0614e-13
2.1582e-10
2.86711e-10
-4.1276e-14
1.70145e-10
2.62347e-10
-1.24268e-14
1.3316e-10
2.32677e-10
-1.62945e-15
1.03288e-10
2.00572e-10
1.34489e-15
7.92734e-11
1.68472e-10
1.50018e-15
6.01105e-11
1.38217e-10
9.05877e-16
4.49795e-11
2.7556e-10
-5.66821e-13
4.28472e-10
2.93209e-10
-3.15853e-13
3.47747e-10
2.96215e-10
-1.53886e-13
2.78965e-10
2.85996e-10
-6.5657e-14
2.21551e-10
2.65325e-10
-2.29031e-14
1.74246e-10
2.37578e-10
-5.13434e-15
1.35623e-10
2.06139e-10
8.51635e-16
1.04346e-10
1.73929e-10
2.01477e-15
7.92709e-11
1.43146e-10
1.56479e-15
5.94052e-11
1.15207e-10
8.43229e-16
4.38814e-11
-2.76345e-13
5.37235e-10
5.61035e-10
-5.18385e-13
2.18313e-10
4.96816e-10
-6.46507e-13
3.46804e-10
4.8535e-10
-9.96024e-13
2.69417e-10
4.51094e-10
-6.00706e-13
1.32148e-10
3.27261e-10
-9.1491e-13
2.43664e-10
4.15226e-10
-1.28242e-12
2.63933e-10
4.31173e-10
-9.26909e-13
1.86263e-10
3.50954e-10
-7.40338e-13
6.05796e-11
2.40835e-10
-8.19786e-13
1.8018e-10
3.80561e-10
-1.41203e-12
2.26353e-10
3.96959e-10
-1.18053e-12
2.03522e-10
3.63192e-10
-1.01205e-12
1.07828e-10
2.69863e-10
-4.84236e-13
3.69488e-11
1.84172e-10
-6.12585e-13
1.38068e-10
3.5679e-10
-1.10817e-12
1.84972e-10
3.70475e-10
-1.27528e-12
1.92031e-10
3.57458e-10
-1.18246e-12
1.3858e-10
2.92404e-10
-6.00115e-13
7.06771e-11
2.1015e-10
-3.27759e-13
2.33856e-11
1.45217e-10
-3.33247e-13
1.07626e-10
3.39472e-10
-7.20161e-13
1.48182e-10
3.46311e-10
-9.74047e-13
1.68802e-10
3.4458e-10
-1.13774e-12
1.49009e-10
3.03646e-10
-6.54603e-13
9.76663e-11
2.33724e-10
-3.75482e-13
4.67797e-11
1.66395e-10
-1.53831e-13
1.6101e-11
1.16469e-10
-1.6662e-13
8.46594e-11
3.23171e-10
-3.57077e-13
1.18083e-10
3.25899e-10
-6.23034e-13
1.42188e-10
3.26781e-10
-8.33629e-13
1.44264e-10
3.05082e-10
-6.19298e-13
1.13817e-10
2.51542e-10
-3.86166e-13
6.81086e-11
1.87278e-10
-1.61034e-13
3.26346e-11
1.33528e-10
-7.47189e-14
1.14446e-11
9.45994e-11
-7.12878e-14
6.68777e-11
3.0587e-10
-1.65534e-13
9.40008e-11
3.06783e-10
-3.07548e-13
1.17039e-10
3.08128e-10
-5.15772e-13
1.30041e-10
2.97814e-10
-4.73565e-13
1.18764e-10
2.61735e-10
-3.50324e-13
8.45685e-11
2.05784e-10
-1.55602e-13
4.86743e-11
1.51084e-10
-7.37516e-14
2.33201e-11
1.08363e-10
-2.97786e-14
8.332e-12
7.75928e-11
-2.86574e-14
5.28915e-11
2.86279e-10
-6.567e-14
7.47828e-11
2.876e-10
-1.40329e-13
9.50655e-11
2.89036e-10
-2.55127e-13
1.12008e-10
2.85109e-10
-3.16548e-13
1.14139e-10
2.63418e-10
-2.70527e-13
9.41525e-11
2.19718e-10
-1.38027e-13
6.27128e-11
1.67913e-10
-6.72885e-14
3.5231e-11
1.22834e-10
-2.6806e-14
1.7e-11
8.87593e-11
-1.119e-14
6.1313e-12
6.41879e-11
-9.54975e-15
4.17689e-11
2.63927e-10
-2.36447e-14
5.94007e-11
2.67153e-10
-5.29519e-14
7.65876e-11
2.69513e-10
-1.12589e-13
9.37009e-11
2.69035e-10
-1.6989e-13
1.03353e-10
2.57771e-10
-1.83826e-13
9.61806e-11
2.27252e-10
-1.08777e-13
7.30863e-11
1.8238e-10
-5.54024e-14
4.64326e-11
1.37313e-10
-2.18758e-14
2.58364e-11
1.00641e-10
-8.73891e-15
1.25096e-11
7.33146e-11
-3.0032e-15
4.52686e-12
5.35269e-11
-2.23306e-15
3.28537e-11
2.38935e-10
-6.077e-15
4.70334e-11
2.44862e-10
-1.66292e-14
6.13178e-11
2.4901e-10
-3.88975e-14
7.6935e-11
2.50982e-10
-7.59271e-14
8.96732e-11
2.46536e-10
-1.00569e-13
9.17671e-11
2.27806e-10
-7.55485e-14
7.84842e-11
1.92684e-10
-3.94243e-14
5.58663e-11
1.5072e-10
-1.50032e-14
3.44811e-11
1.12817e-10