/*--------------------------------*- C++ -*----------------------------------*\
  =========                 |
  \\      /  F ield         | OpenFOAM: The Open Source CFD Toolbox
   \\    /   O peration     | Website:  https://openfoam.org
    \\  /    A nd           | Version:  7
     \\/     M anipulation  |
\*---------------------------------------------------------------------------*/
FoamFile
{
    version     2.0;
    format      ascii;
    class       volVectorField;
    location    "118";
    object      U;
}
// * * * * * * * * * * * * * * * * * * * * * * * * * * * * * * * * * * * * * //

dimensions      [0 1 -1 0 0 0 0];

internalField   nonuniform List<vector> 
44002
(
(0.140354 -0.0011767 0.200511)
(0.257653 -0.000986464 0.0309476)
(0.0664181 -0.000299141 0.11949)
(0.0475851 -6.27566e-05 0.0982669)
(0.0359146 -1.22547e-05 0.0787264)
(0.0288723 -5.7651e-06 0.0662342)
(0.140726 -0.00241584 0.205241)
(0.261136 -0.00213355 0.0314326)
(0.111452 -0.00025557 0.121097)
(0.170883 -0.000416771 0.0616263)
(0.145305 -0.000115551 0.0160264)
(0.0664002 -0.000727014 0.119871)
(0.0663255 -8.73743e-05 0.0998935)
(0.0475766 -0.0001653 0.0983108)
(0.048732 -1.18319e-05 0.0812029)
(0.0359143 -3.88216e-05 0.0787369)
(0.037877 -6.32344e-06 0.0684761)
(0.0288721 -1.67629e-05 0.0662356)
(0.0306637 -1.88517e-06 0.0583771)
(0.0254357 -9.70814e-07 0.050498)
(0.021393 -4.37825e-07 0.044126)
(0.141021 -0.00198645 0.208023)
(0.263323 -0.00204239 0.0317646)
(0.111503 -0.00065741 0.121568)
(0.171275 -0.000913863 0.0620534)
(0.145614 -0.000340253 0.0160565)
(0.0873712 -5.6345e-05 0.0951699)
(0.130697 -0.000172544 0.0697135)
(0.13216 -5.80176e-05 0.0374777)
(0.121565 -5.388e-05 0.00614315)
(0.0663699 -0.000864505 0.120229)
(0.0663297 -0.000221201 0.0999703)
(0.0613231 -1.62475e-05 0.079117)
(0.047564 -0.000234807 0.0983835)
(0.0487309 -4.06662e-05 0.0812155)
(0.0471197 -5.85963e-06 0.0682619)
(0.0359129 -6.60789e-05 0.0787539)
(0.037877 -1.87777e-05 0.0684778)
(0.037664 -1.77282e-06 0.0586584)
(0.0288717 -2.74027e-05 0.0662387)
(0.0306638 -6.08854e-06 0.0583778)
(0.0309457 -8.61777e-07 0.0509441)
(0.0254357 -2.98375e-06 0.0504982)
(0.0258386 -3.61945e-07 0.0445416)
(0.021393 -1.35376e-06 0.0441261)
(0.0217464 -1.83551e-07 0.0392001)
(0.141236 -0.00151447 0.209425)
(0.264503 -0.00184058 0.0320286)
(0.111577 -0.000794987 0.121964)
(0.171616 -0.00103241 0.0624431)
(0.145919 -0.000463997 0.0161083)
(0.0873795 -0.000163779 0.0952383)
(0.130765 -0.000410215 0.0698354)
(0.132265 -0.000176433 0.0375161)
(0.121589 -0.000136936 0.00614989)
(0.0722652 -6.39775e-06 0.073976)
(0.0987169 -6.43772e-05 0.0697735)
(0.116492 -2.13758e-05 0.0475765)
(0.115162 -3.91588e-05 0.0176855)
(0.0977229 -2.70084e-06 0.00336867)
(0.0663474 -0.00083555 0.120558)
(0.0663305 -0.000299243 0.100083)
(0.0613254 -5.179e-05 0.0791349)
(0.055093 -6.87173e-06 0.0655424)
(0.0475481 -0.000281507 0.0984678)
(0.0487285 -7.24136e-05 0.0812366)
(0.0471196 -1.84687e-05 0.0682636)
(0.0440447 -1.50367e-06 0.0573545)
(0.0359104 -8.98292e-05 0.0787778)
(0.0378767 -3.11499e-05 0.0684819)
(0.0376641 -6.10655e-06 0.0586592)
(0.0361252 -7.81927e-07 0.0502802)
(0.0288709 -3.79956e-05 0.0662438)
(0.0306637 -1.08745e-05 0.0583792)
(0.0309457 -2.84068e-06 0.0509443)
(0.0301362 -2.81138e-07 0.0441944)
(0.0254357 -5.16187e-06 0.0504986)
(0.0258386 -1.22405e-06 0.0445416)
(0.0253759 -1.27877e-07 0.0389899)
(0.0213931 -2.35843e-06 0.0441262)
(0.0217465 -6.09443e-07 0.0392002)
(0.0214219 -5.35645e-08 0.0344908)
(0.141365 -0.00107223 0.210023)
(0.265043 -0.00148149 0.0322264)
(0.111643 -0.000743566 0.122293)
(0.171903 -0.00106813 0.0628335)
(0.146239 -0.000467603 0.0161543)
(0.0873941 -0.000244697 0.0953462)
(0.130875 -0.000519855 0.0699756)
(0.13239 -0.000272881 0.0375869)
(0.121639 -0.000188096 0.00615995)
(0.0722645 -3.2964e-05 0.0739875)
(0.098727 -0.000158821 0.0698152)
(0.116533 -8.28667e-05 0.0475902)
(0.115173 -0.000101197 0.0176973)
(0.0977328 -1.56362e-05 0.00336825)
(0.0610928 -4.59896e-06 0.0616078)
(0.0793587 -1.79757e-05 0.0629514)
(0.0981126 -1.78813e-05 0.0523268)
(0.106056 -2.47759e-05 0.0278701)
(0.09596 -3.60644e-06 0.0103294)
(0.0837373 -3.46431e-06 0.00193087)
(0.0663357 -0.000725606 0.120816)
(0.0663318 -0.000345383 0.100207)
(0.0613267 -8.70686e-05 0.0791629)
(0.0550935 -2.08127e-05 0.0655448)
(0.0491207 -1.81048e-06 0.0549362)
(0.0475314 -0.000301834 0.0985508)
(0.0487251 -9.907e-05 0.081266)
(0.0471191 -3.19425e-05 0.0682682)
(0.0440446 -5.68578e-06 0.0573553)
(0.0404823 -7.38077e-07 0.048773)
(0.035907 -0.000108745 0.0788066)
(0.0378761 -4.3307e-05 0.0684885)
(0.0376641 -1.13596e-05 0.0586608)
(0.0361252 -2.7377e-06 0.0502803)
(0.0339044 -2.51588e-07 0.043195)
(0.0288697 -4.77858e-05 0.066251)
(0.0306636 -1.59054e-05 0.0583814)
(0.0309457 -5.16431e-06 0.0509447)
(0.0301362 -1.07596e-06 0.0441944)
(0.0286765 -9.3687e-08 0.0382926)
(0.0254357 -7.5044e-06 0.0504993)
(0.0258386 -2.27033e-06 0.0445418)
(0.0253759 -4.99008e-07 0.03899)
(0.0243531 -2.38444e-08 0.0339698)
(0.0213931 -3.45453e-06 0.0441265)
(0.0217465 -1.1181e-06 0.0392002)
(0.0214219 -2.23595e-07 0.0344908)
(0.0206492 -1.45027e-09 0.030124)
(0.14143 -0.000760168 0.210271)
(0.265283 -0.00114616 0.0323701)
(0.111689 -0.000632473 0.122531)
(0.172107 -0.000987717 0.0631545)
(0.146518 -0.000428249 0.0161872)
(0.087412 -0.000288405 0.0954597)
(0.130984 -0.000578983 0.0701421)
(0.132541 -0.000324783 0.0376591)
(0.121695 -0.000222668 0.006172)
(0.0722659 -6.86718e-05 0.07401)
(0.0987488 -0.000216131 0.0698735)
(0.11659 -0.00015193 0.0476193)
(0.115198 -0.000144564 0.017715)
(0.0977485 -3.44935e-05 0.00336869)
(0.0610929 -1.61405e-05 0.0616086)
(0.0793577 -4.96029e-05 0.0629641)
(0.098126 -5.44372e-05 0.0523301)
(0.106059 -6.65794e-05 0.0278777)
(0.0959671 -1.56649e-05 0.010329)
(0.0837375 -1.07187e-05 0.001931)
(0.0527659 -1.44565e-06 0.0522027)
(0.0656233 -6.59767e-06 0.0557949)
(0.0822089 -7.22107e-06 0.0515093)
(0.0940024 -1.61779e-05 0.0353471)
(0.0921409 -3.43452e-06 0.0175452)
(0.0829774 -3.16412e-06 0.00616431)
(0.0728953 -6.28264e-07 0.00122712)
(0.0663324 -0.00059829 0.121008)
(0.066334 -0.00035724 0.100321)
(0.0613282 -0.000115055 0.0792005)
(0.055094 -3.48512e-05 0.0655506)
(0.0491207 -6.31488e-06 0.0549371)
(0.0438022 -8.61878e-07 0.0468636)
(0.0475155 -0.000301015 0.0986254)
(0.0487209 -0.000119717 0.081301)
(0.0471185 -4.49944e-05 0.0682757)
(0.0440446 -1.11472e-05 0.0573569)
(0.0404823 -2.66218e-06 0.0487731)
(0.0369292 -2.62204e-07 0.0418228)
(0.0359028 -0.000121805 0.0788383)
(0.0378752 -5.44054e-05 0.0684977)
(0.0376641 -1.68446e-05 0.0586635)
(0.0361252 -5.16936e-06 0.0502808)
(0.0339044 -1.02478e-06 0.0431951)
(0.0314429 -9.40847e-08 0.0372663)
(0.0288681 -5.6304e-05 0.06626)
(0.0306633 -2.10502e-05 0.0583846)
(0.0309457 -7.66241e-06 0.0509454)
(0.0301362 -2.14583e-06 0.0441946)
(0.0286765 -4.30516e-07 0.0382927)
(0.0269096 -1.4097e-08 0.033176)
(0.0254356 -9.96269e-06 0.0505003)
(0.0258387 -3.41473e-06 0.0445421)
(0.025376 -1.00709e-06 0.03899)
(0.0243531 -1.60819e-07 0.0339698)
(0.0230399 1.07318e-08 0.0294911)
(0.0213931 -4.63142e-06 0.0441269)
(0.0217465 -1.67793e-06 0.0392004)
(0.021422 -4.67074e-07 0.0344909)
(0.0206492 -5.66333e-08 0.030124)
(0.0196431 1.61802e-08 0.0261323)
(0.141453 -0.00054018 0.21038)
(0.265395 -0.000861501 0.0324682)
(0.111714 -0.00051802 0.122699)
(0.172246 -0.000857808 0.063404)
(0.146751 -0.000377176 0.0162072)
(0.0874299 -0.000303609 0.0955614)
(0.131074 -0.000576024 0.0703076)
(0.132693 -0.000340894 0.0377198)
(0.121751 -0.000237774 0.006184)
(0.0722686 -9.60394e-05 0.0740409)
(0.0987774 -0.000261295 0.0699491)
(0.116663 -0.000199358 0.0476586)
(0.115232 -0.000179505 0.0177375)
(0.0977703 -5.05324e-05 0.0033695)
(0.0610935 -2.97419e-05 0.0616128)
(0.0793604 -7.63826e-05 0.0629831)
(0.0981456 -9.031e-05 0.0523426)
(0.106071 -9.96835e-05 0.02789)
(0.0959785 -3.20186e-05 0.0103301)
(0.0837393 -1.83438e-05 0.00193124)
(0.0527659 -5.5113e-06 0.0522032)
(0.0656233 -1.90162e-05 0.0557977)
(0.0822117 -2.35748e-05 0.0515123)
(0.0940051 -4.28387e-05 0.0353513)
(0.0921452 -1.36495e-05 0.0175449)
(0.0829778 -9.91246e-06 0.00616457)
(0.0728957 -2.6371e-06 0.00122715)
(0.0461733 -7.9014e-07 0.0449693)
(0.0557762 -1.85868e-06 0.0488311)
(0.0688925 -4.31759e-06 0.0484947)
(0.081766 -8.17557e-06 0.0391633)
(0.0859179 -4.26475e-06 0.0240729)
(0.0811062 -2.78919e-06 0.0110338)
(0.0725615 -5.64348e-07 0.0039607)
(0.0646643 -3.9361e-07 0.000810515)
(0.0663336 -0.00047863 0.121143)
(0.0663371 -0.000345241 0.10042)
(0.0613296 -0.000134894 0.0792437)
(0.0550946 -4.8218e-05 0.0655597)
(0.0491208 -1.18151e-05 0.054939)
(0.0438022 -2.88512e-06 0.0468637)
(0.0391968 -3.22353e-07 0.040368)
(0.0475014 -0.000284185 0.0986882)
(0.0487164 -0.000133169 0.0813391)
(0.0471176 -5.68784e-05 0.068286)
(0.0440445 -1.68208e-05 0.0573597)
(0.0404823 -5.11533e-06 0.0487735)
(0.0369292 -1.04279e-06 0.0418228)
(0.0336116 -1.10592e-07 0.0361179)
(0.0358983 -0.000128732 0.0788708)
(0.0378739 -6.38358e-05 0.068509)
(0.0376639 -2.24605e-05 0.0586672)
(0.0361252 -7.77787e-06 0.0502816)
(0.0339044 -2.10903e-06 0.0431953)
(0.0314429 -4.30945e-07 0.0372663)
(0.0289972 -2.17379e-08 0.0322462)
(0.0288661 -6.30797e-05 0.0662705)
(0.0306629 -2.60824e-05 0.0583889)
(0.0309456 -1.03153e-05 0.0509465)
(0.0301362 -3.31827e-06 0.0441949)
(0.0286765 -9.36819e-07 0.0382927)
(0.0269096 -1.39486e-07 0.033176)
(0.0250712 1.06254e-08 0.0287251)
(0.0254355 -1.24827e-05 0.0505017)
(0.0258387 -4.66542e-06 0.0445426)
(0.025376 -1.56879e-06 0.0389901)
(0.0243531 -3.96213e-07 0.0339699)
(0.0230399 -2.96765e-08 0.0294911)
(0.0216398 1.97934e-08 0.0254968)
(0.021393 -5.87632e-06 0.0441274)
(0.0217465 -2.29427e-06 0.0392005)
(0.021422 -7.38089e-07 0.0344909)
(0.0206492 -1.68242e-07 0.0301241)
(0.0196431 9.14442e-09 0.0261323)
(0.0185737 1.88726e-08 0.0225033)
(0.141451 -0.000387126 0.210438)
(0.265455 -0.000638541 0.0325336)
(0.111721 -0.00041807 0.122815)
(0.172336 -0.000709152 0.0635878)
(0.146935 -0.000326334 0.0162177)
(0.0874458 -0.000298332 0.0956462)
(0.131142 -0.000534622 0.0704597)
(0.132836 -0.000331478 0.0377662)
(0.121803 -0.000238526 0.00619483)
(0.0722721 -0.000116811 0.074077)
(0.0988086 -0.000284459 0.0700319)
(0.116743 -0.000227706 0.0477022)
(0.115273 -0.000200529 0.0177617)
(0.0977962 -6.44198e-05 0.00337057)
(0.0610945 -4.25897e-05 0.0616199)
(0.0793656 -0.00010043 0.0630099)
(0.0981728 -0.000121584 0.0523624)
(0.10609 -0.000128537 0.0279074)
(0.0959952 -4.71618e-05 0.0103322)
(0.0837426 -2.58785e-05 0.00193159)
(0.0527659 -1.08354e-05 0.0522047)
(0.0656241 -3.08145e-05 0.0558028)
(0.0822167 -4.17802e-05 0.0515187)
(0.0940113 -6.40694e-05 0.035359)
(0.0921526 -2.70872e-05 0.017546)
(0.0829795 -1.71693e-05 0.00616512)
(0.0728966 -5.47344e-06 0.00122719)
(0.0461733 -2.70984e-06 0.0449694)
(0.0557761 -6.14055e-06 0.048832)
(0.0688931 -1.30458e-05 0.0484956)
(0.0817667 -2.23553e-05 0.0391659)
(0.0859205 -1.34087e-05 0.0240729)
(0.0811066 -8.74088e-06 0.0110339)
(0.0725619 -2.49809e-06 0.00396071)
(0.0646643 -1.40903e-06 0.000810543)
(0.0408319 -3.05235e-07 0.0390324)
(0.048241 -7.62316e-07 0.0428059)
(0.0584858 -1.70042e-06 0.044264)
(0.0702309 -4.38206e-06 0.0400033)
(0.0780545 -3.34481e-06 0.0289405)
(0.0777409 -2.59436e-06 0.0161017)
(0.0716604 -6.06103e-07 0.00723746)
(0.064494 -3.29259e-07 0.00262891)
(0.0580882 -1.2056e-07 0.000551722)
(0.0663362 -0.000376877 0.121235)
(0.0663408 -0.000317289 0.100499)
(0.0613312 -0.000146269 0.0792892)
(0.0550953 -6.00246e-05 0.0655718)
(0.0491209 -1.75045e-05 0.054942)
(0.0438022 -5.29874e-06 0.0468642)
(0.0391968 -1.14855e-06 0.0403681)
(0.0352338 -1.40117e-07 0.0350136)
(0.0474896 -0.000257187 0.0987382)
(0.0487121 -0.000139436 0.0813774)
(0.0471166 -6.68233e-05 0.0682987)
(0.0440444 -2.2655e-05 0.0573637)
(0.0404823 -7.74498e-06 0.0487743)
(0.0369292 -2.12135e-06 0.041823)
(0.0336116 -4.60998e-07 0.0361179)
(0.0306185 -3.34498e-08 0.0313138)
(0.0358936 -0.000129855 0.0789022)
(0.0378723 -7.10589e-05 0.0685221)
(0.0376637 -2.79123e-05 0.0586722)
(0.0361252 -1.05629e-05 0.0502828)
(0.0339044 -3.29723e-06 0.0431956)
(0.0314429 -9.36521e-07 0.0372664)
(0.0289972 -1.53899e-07 0.0322462)
(0.0267081 3.41872e-09 0.0279262)
(0.0288639 -6.77884e-05 0.0662821)
(0.0306624 -3.07626e-05 0.058394)
(0.0309456 -1.30438e-05 0.0509481)
(0.0301362 -4.61957e-06 0.0441954)
(0.0286765 -1.49794e-06 0.0382928)
(0.0269096 -3.70697e-07 0.033176)
(0.0250712 -2.88423e-08 0.0287251)
(0.0233111 1.70995e-08 0.0248097)
(0.0254353 -1.49892e-05 0.0505034)
(0.0258387 -5.99965e-06 0.0445432)
(0.025376 -2.20128e-06 0.0389903)
(0.0243531 -6.59789e-07 0.0339699)
(0.0230399 -1.35445e-07 0.0294911)
(0.0216398 1.77761e-08 0.0254968)
(0.0202923 1.88694e-08 0.0219183)
(0.021393 -7.16769e-06 0.0441282)
(0.0217465 -2.96106e-06 0.0392008)
(0.021422 -1.04762e-06 0.034491)
(0.0206492 -2.94311e-07 0.0301241)
(0.0196431 -3.85365e-08 0.0261323)
(0.0185737 2.85845e-08 0.0225033)
(0.0175586 1.65185e-08 0.0192128)
(0.141436 -0.000278292 0.210477)
(0.265493 -0.000469045 0.032577)
(0.111718 -0.000336027 0.122895)
(0.172393 -0.000567601 0.0637206)
(0.147078 -0.000279433 0.0162224)
(0.0874585 -0.000279344 0.0957136)
(0.13119 -0.00047082 0.0705891)
(0.13296 -0.000306011 0.0377997)
(0.121848 -0.000228537 0.00620394)
(0.072276 -0.000129941 0.0741153)
(0.0988393 -0.000288899 0.0701148)
(0.116822 -0.000237851 0.0477455)
(0.115315 -0.00020894 0.0177855)
(0.0978247 -7.51754e-05 0.0033717)
(0.0610959 -5.42767e-05 0.06163)
(0.0793729 -0.000118881 0.0630423)
(0.0982051 -0.000145516 0.0523878)
(0.106114 -0.000149265 0.0279284)
(0.096016 -6.08211e-05 0.0103351)
(0.0837475 -3.29613e-05 0.00193204)
(0.0527661 -1.63315e-05 0.0522073)
(0.0656256 -4.24336e-05 0.0558107)
(0.0822245 -5.93088e-05 0.051529)
(0.0940213 -8.42898e-05 0.0353705)
(0.0921638 -4.01379e-05 0.0175481)
(0.0829825 -2.44415e-05 0.00616597)
(0.0728982 -8.49744e-06 0.00122724)
(0.0461734 -5.05296e-06 0.0449698)
(0.0557762 -1.11098e-05 0.0488336)
(0.0688945 -2.20896e-05 0.0484979)
(0.0817689 -3.47188e-05 0.0391702)
(0.0859249 -2.33787e-05 0.0240738)
(0.081108 -1.51951e-05 0.0110345)
(0.0725627 -5.30319e-06 0.00396076)
(0.0646645 -2.70608e-06 0.000810569)
(0.0408319 -1.10537e-06 0.0390324)
(0.048241 -2.6173e-06 0.0428061)
(0.0584857 -5.43742e-06 0.0442645)
(0.0702312 -1.2058e-05 0.0400043)
(0.0780556 -9.97813e-06 0.0289408)
(0.0777414 -7.75709e-06 0.0161018)
(0.0716607 -2.4972e-06 0.00723741)
(0.064494 -1.28914e-06 0.00262894)
(0.0580883 -5.03906e-07 0.000551739)
(0.036418 -1.30016e-07 0.034047)
(0.0423066 -2.6523e-07 0.0375674)
(0.0503231 -7.99689e-07 0.0398581)
(0.0603131 -1.92214e-06 0.0386632)
(0.0693762 -2.54898e-06 0.0317566)
(0.0728895 -2.12768e-06 0.0207245)
(0.069903 -7.32362e-07 0.0109202)
(0.0640226 -3.24524e-07 0.00485706)
(0.0579965 -8.14976e-08 0.00179314)
(0.0527769 -4.45535e-08 0.000381659)
(0.066338 -0.000294326 0.121294)
(0.0663443 -0.000280972 0.100559)
(0.0613329 -0.000149927 0.0793337)
(0.0550962 -6.9611e-05 0.0655863)
(0.0491211 -2.32683e-05 0.0549463)
(0.0438022 -7.89124e-06 0.046865)
(0.0391968 -2.20324e-06 0.0403683)
(0.0352338 -5.12561e-07 0.0350137)
(0.0318361 -4.91897e-08 0.0304684)
(0.0474802 -0.000225116 0.0987759)
(0.0487082 -0.000139197 0.0814138)
(0.0471156 -7.4264e-05 0.0683133)
(0.0440442 -2.82971e-05 0.0573689)
(0.0404823 -1.05582e-05 0.0487755)
(0.0369292 -3.30372e-06 0.0418233)
(0.0336116 -9.61519e-07 0.036118)
(0.0306185 -1.75878e-07 0.0313138)
(0.0279769 -3.62484e-09 0.0271757)
(0.0358891 -0.000125993 0.0789309)
(0.0378706 -7.5741e-05 0.0685362)
(0.0376633 -3.29211e-05 0.0586782)
(0.0361251 -1.34246e-05 0.0502845)
(0.0339044 -4.6222e-06 0.0431961)
(0.0314429 -1.4969e-06 0.0372665)
(0.0289972 -3.83713e-07 0.0322462)
(0.0267081 -4.28877e-08 0.0279262)
(0.0246502 1.17973e-08 0.0241398)
(0.0288616 -7.02728e-05 0.0662941)
(0.0306617 -3.48463e-05 0.0584001)
(0.0309454 -1.57576e-05 0.0509501)
(0.0301362 -6.01718e-06 0.044196)
(0.0286765 -2.13815e-06 0.038293)
(0.0269096 -6.30193e-07 0.0331761)
(0.0250712 -1.32484e-07 0.0287251)
(0.0233111 1.27778e-08 0.0248097)
(0.0217196 1.59797e-08 0.0213251)
(0.0254351 -1.73923e-05 0.0505057)
(0.0258386 -7.39145e-06 0.044544)
(0.025376 -2.89364e-06 0.0389906)
(0.0243532 -9.68289e-07 0.03397)
(0.02304 -2.5568e-07 0.0294911)
(0.0216398 -2.68679e-08 0.0254968)
(0.0202923 2.91401e-08 0.0219183)
(0.0190838 1.52345e-08 0.0186994)
(0.0213929 -8.47603e-06 0.0441291)
(0.0217465 -3.671e-06 0.0392011)
(0.021422 -1.39137e-06 0.0344911)
(0.0206492 -4.45309e-07 0.0301241)
(0.0196431 -9.36482e-08 0.0261323)
(0.0185737 1.01784e-08 0.0225033)
(0.0175586 3.00471e-08 0.0192128)
(0.0166679 1.30684e-08 0.0162409)
(0.141416 -0.000199659 0.210507)
(0.265519 -0.000342728 0.0326065)
(0.111708 -0.000269544 0.122949)
(0.172429 -0.0004449 0.0638155)
(0.147186 -0.000236924 0.0162238)
(0.0874678 -0.000252343 0.0957659)
(0.131222 -0.000399418 0.0706935)
(0.133063 -0.000272418 0.0378232)
(0.121888 -0.000211572 0.00621128)
(0.0722799 -0.000136014 0.0741534)
(0.0988672 -0.000277604 0.0701918)
(0.116895 -0.000233571 0.0477852)
(0.115357 -0.000206309 0.0178072)
(0.0978542 -8.25893e-05 0.00337282)
(0.0610978 -6.39949e-05 0.0616425)
(0.0793814 -0.000131043 0.0630786)
(0.0982404 -0.000160682 0.0524165)
(0.106141 -0.000161472 0.0279515)
(0.09604 -7.1826e-05 0.0103385)
(0.083754 -3.9237e-05 0.00193256)
(0.0527665 -2.1953e-05 0.052211)
(0.065628 -5.29426e-05 0.0558211)
(0.0822347 -7.50487e-05 0.0515429)
(0.0940348 -0.000100769 0.0353853)
(0.0921784 -5.24289e-05 0.0175515)
(0.0829871 -3.13922e-05 0.00616711)
(0.0729004 -1.17416e-05 0.0012273)
(0.0461735 -7.56701e-06 0.0449706)
(0.0557764 -1.62755e-05 0.0488362)
(0.0688967 -3.13139e-05 0.0485018)
(0.0817727 -4.71248e-05 0.0391768)
(0.0859316 -3.35188e-05 0.0240758)
(0.0811105 -2.17778e-05 0.0110354)
(0.0725641 -8.28475e-06 0.00396086)
(0.0646649 -4.12222e-06 0.0008106)
(0.040832 -2.1392e-06 0.0390326)
(0.0482411 -4.87736e-06 0.0428065)
(0.0584859 -9.65531e-06 0.0442655)
(0.0702321 -1.89241e-05 0.0400063)
(0.0780577 -1.68022e-05 0.0289418)
(0.0777426 -1.30655e-05 0.0161023)
(0.0716615 -5.14107e-06 0.00723743)
(0.0644942 -2.59336e-06 0.00262898)
(0.0580884 -1.05531e-06 0.000551753)
(0.036418 -4.89535e-07 0.034047)
(0.0423066 -1.0208e-06 0.0375675)
(0.050323 -2.57879e-06 0.0398583)
(0.0603132 -5.52366e-06 0.0386637)
(0.0693767 -7.21083e-06 0.0317569)
(0.0728899 -6.18612e-06 0.0207247)
(0.0699033 -2.61404e-06 0.0109202)
(0.0640226 -1.2554e-06 0.00485706)
(0.0579966 -4.34977e-07 0.00179316)
(0.052777 -2.04908e-07 0.00038167)
(0.0327349 -4.28231e-08 0.0297512)
(0.0375109 -1.00783e-07 0.033013)
(0.0438871 -3.11402e-07 0.0355979)
(0.0520798 -8.85561e-07 0.0361519)
(0.060905 -1.49786e-06 0.0325586)
(0.0668355 -1.70562e-06 0.0242901)
(0.0670793 -7.95304e-07 0.0146956)
(0.0630669 -3.38286e-07 0.00747648)
(0.0577397 -8.36113e-08 0.00333093)
(0.052725 -1.8549e-08 0.0012418)
(0.0484422 -3.62189e-09 0.000266364)
(0.0663385 -0.000229256 0.121332)
(0.0663472 -0.000241892 0.100604)
(0.0613345 -0.000147142 0.0793749)
(0.0550971 -7.65178e-05 0.0656025)
(0.0491213 -2.87812e-05 0.0549518)
(0.0438023 -1.06408e-05 0.0468663)
(0.0391968 -3.36353e-06 0.0403686)
(0.0352338 -1.00072e-06 0.0350137)
(0.031836 -2.03724e-07 0.0304684)
(0.0289354 -1.23697e-08 0.02652)
(0.047473 -0.000192015 0.0988029)
(0.0487048 -0.000133643 0.0814465)
(0.0471146 -7.88826e-05 0.0683289)
(0.044044 -3.34459e-05 0.0573753)
(0.0404822 -1.34456e-05 0.0487773)
(0.0369292 -4.61973e-06 0.0418238)
(0.0336116 -1.51628e-06 0.0361181)
(0.0306185 -4.03357e-07 0.0313139)
(0.0279769 -5.63699e-08 0.0271757)
(0.0256898 7.72332e-09 0.0235356)
(0.0358851 -0.000118292 0.078956)
(0.0378687 -7.77782e-05 0.0685508)
(0.0376629 -3.72093e-05 0.0586852)
(0.0361251 -1.62604e-05 0.0502867)
(0.0339044 -6.04668e-06 0.0431967)
(0.0314429 -2.13616e-06 0.0372667)
(0.0289972 -6.41423e-07 0.0322462)
(0.0267081 -1.46101e-07 0.0279263)
(0.0246502 2.19967e-09 0.0241398)
(0.0228614 1.24835e-08 0.02077)
(0.0288591 -7.05663e-05 0.0663062)
(0.0306609 -3.81155e-05 0.0584068)
(0.0309452 -1.83482e-05 0.0509527)
(0.0301362 -7.48084e-06 0.0441969)
(0.0286765 -2.84344e-06 0.0382933)
(0.0269096 -9.36497e-07 0.0331761)
(0.0250712 -2.50389e-07 0.0287251)
(0.0233111 -3.11806e-08 0.0248097)
(0.0217196 2.33809e-08 0.0213251)
(0.020346 1.2865e-08 0.0181985)
(0.0254348 -1.95929e-05 0.0505083)
(0.0258386 -8.80413e-06 0.0445451)
(0.025376 -3.63725e-06 0.0389909)
(0.0243532 -1.31537e-06 0.0339701)
(0.02304 -4.03029e-07 0.0294912)
(0.0216398 -7.88263e-08 0.0254968)
(0.0202923 1.18974e-08 0.0219183)
(0.0190838 2.75993e-08 0.0186994)
(0.0180592 1.14094e-08 0.0158034)
(0.0213928 -9.7636e-06 0.0441303)
(0.0217465 -4.41243e-06 0.0392016)
(0.021422 -1.76706e-06 0.0344913)
(0.0206492 -6.18022e-07 0.0301242)
(0.0196431 -1.64577e-07 0.0261323)
(0.0185737 -1.20402e-08 0.0225033)
(0.0175586 2.43789e-08 0.0192128)
(0.0166679 2.5694e-08 0.0162409)
(0.0159328 9.75014e-09 0.0135753)
(0.141394 -0.000142089 0.210531)
(0.265538 -0.000249472 0.032627)
(0.111694 -0.000215897 0.122986)
(0.17245 -0.000344908 0.0638837)
(0.147267 -0.000198944 0.0162236)
(0.087474 -0.00022161 0.0958053)
(0.131242 -0.000329908 0.0707742)
(0.133144 -0.000236137 0.0378395)
(0.121922 -0.000190613 0.00621704)
(0.0722834 -0.000135896 0.0741893)
(0.0988912 -0.000255436 0.0702592)
(0.116958 -0.000219059 0.0478192)
(0.115395 -0.000195405 0.0178262)
(0.0978832 -8.66027e-05 0.00337386)
(0.0610999 -7.12669e-05 0.0616568)
(0.0793905 -0.000136671 0.0631161)
(0.0982761 -0.000166864 0.0524459)
(0.10617 -0.000165256 0.0279749)
(0.0960657 -7.96594e-05 0.0103422)
(0.0837618 -4.44095e-05 0.00193312)
(0.052767 -2.73599e-05 0.052216)
(0.0656312 -6.18048e-05 0.0558339)
(0.0822467 -8.77581e-05 0.05156)
(0.0940514 -0.000112873 0.0354028)
(0.0921958 -6.29068e-05 0.0175559)
(0.0829932 -3.76459e-05 0.0061685)
(0.0729033 -1.50341e-05 0.00122739)
(0.0461737 -1.02406e-05 0.0449718)
(0.0557769 -2.15084e-05 0.0488399)
(0.0688999 -4.01778e-05 0.0485076)
(0.0817782 -5.83305e-05 0.0391857)
(0.0859406 -4.32876e-05 0.0240789)
(0.0811143 -2.82073e-05 0.0110368)
(0.0725662 -1.14906e-05 0.00396102)
(0.0646655 -5.66934e-06 0.000810634)
(0.040832 -3.2738e-06 0.0390329)
(0.0482412 -7.29076e-06 0.0428073)
(0.0584864 -1.41141e-05 0.0442673)
(0.0702337 -2.60448e-05 0.0400094)
(0.0780609 -2.39377e-05 0.0289436)
(0.0777447 -1.85892e-05 0.0161033)
(0.0716627 -7.96744e-06 0.00723752)
(0.0644946 -4.0039e-06 0.00262904)
(0.0580885 -1.67248e-06 0.000551768)
(0.036418 -9.70371e-07 0.0340471)
(0.0423066 -2.038e-06 0.0375676)
(0.0503231 -4.61924e-06 0.0398586)
(0.0603134 -9.04023e-06 0.0386646)
(0.0693776 -1.16417e-05 0.0317576)
(0.0728907 -1.02147e-05 0.0207252)
(0.0699039 -4.99641e-06 0.0109202)
(0.0640228 -2.51196e-06 0.00485708)
(0.0579967 -9.9808e-07 0.00179318)
(0.052777 -4.49034e-07 0.000381679)
(0.0327349 -1.90267e-07 0.0297512)
(0.0375109 -4.31554e-07 0.033013)
(0.043887 -1.08022e-06 0.035598)
(0.0520798 -2.62974e-06 0.036152)
(0.0609051 -4.23673e-06 0.0325589)
(0.0668358 -4.77732e-06 0.0242903)
(0.0670795 -2.56121e-06 0.0146956)
(0.063067 -1.24137e-06 0.00747647)
(0.0577398 -4.32536e-07 0.00333093)
(0.052725 -1.59476e-07 0.00124181)
(0.0484422 -5.29542e-08 0.000266372)
(0.0296497 -8.00196e-09 0.0259756)
(0.0335784 -2.43948e-08 0.0289972)
(0.0387286 -1.23726e-07 0.0316452)
(0.0453927 -3.62506e-07 0.0331036)
(0.0532394 -8.25628e-07 0.0318223)
(0.060197 -1.165e-06 0.0264197)
(0.0631481 -8.16621e-07 0.018123)
(0.0614312 -3.6075e-07 0.0103646)
(0.0572073 -9.22445e-08 0.00518394)
(0.0525789 -1.89795e-08 0.00231384)
(0.0484119 1.37931e-08 0.000867218)
(0.0449027 1.05861e-08 0.000186284)
(0.0663374 -0.000178819 0.121354)
(0.0663493 -0.000203923 0.100636)
(0.0613361 -0.000139441 0.0794114)
(0.0550982 -8.05493e-05 0.0656195)
(0.0491216 -3.37594e-05 0.0549585)
(0.0438024 -1.34514e-05 0.0468681)
(0.0391968 -4.64493e-06 0.0403691)
(0.0352338 -1.54409e-06 0.0350138)
(0.031836 -4.25348e-07 0.0304684)
(0.0289354 -7.19384e-08 0.02652)
(0.0264798 2.66724e-09 0.0230205)
(0.0474674 -0.000160655 0.098821)
(0.048702 -0.000124224 0.0814745)
(0.0471136 -8.06386e-05 0.0683448)
(0.0440439 -3.78079e-05 0.0573827)
(0.0404822 -1.62997e-05 0.0487795)
(0.0369292 -6.0327e-06 0.0418245)
(0.0336116 -2.14549e-06 0.0361183)
(0.0306185 -6.5825e-07 0.0313139)
(0.0279769 -1.58686e-07 0.0271757)
(0.0256898 -5.72355e-09 0.0235356)
(0.0237503 1.02538e-08 0.0202824)
(0.0358816 -0.000108021 0.0789768)
(0.0378669 -7.73042e-05 0.068565)
(0.0376624 -4.05447e-05 0.0586929)
(0.036125 -1.89486e-05 0.0502895)
(0.0339044 -7.53776e-06 0.0431977)
(0.0314429 -2.84018e-06 0.0372669)
(0.0289972 -9.43822e-07 0.0322463)
(0.0267081 -2.63252e-07 0.0279263)
(0.0246502 -4.19469e-08 0.0241399)
(0.0228614 1.63174e-08 0.02077)
(0.0213561 1.05445e-08 0.017742)
(0.0288567 -6.88785e-05 0.0663176)
(0.0306599 -4.04054e-05 0.058414)
(0.030945 -2.06995e-05 0.0509557)
(0.0301362 -8.96722e-06 0.0441981)
(0.0286765 -3.60423e-06 0.0382936)
(0.0269096 -1.28261e-06 0.0331763)
(0.0250712 -3.95023e-07 0.0287252)
(0.0233111 -8.22706e-08 0.0248097)
(0.0217196 6.04778e-09 0.0213251)
(0.020346 2.27464e-08 0.0181985)
(0.0192092 9.5224e-09 0.0153869)
(0.0254344 -2.14906e-05 0.0505114)
(0.0258385 -1.01926e-05 0.0445464)
(0.025376 -4.41771e-06 0.0389914)
(0.0243532 -1.69841e-06 0.0339703)
(0.02304 -5.73573e-07 0.0294912)
(0.0216398 -1.47018e-07 0.0254968)
(0.0202923 -9.03751e-09 0.0219183)
(0.0190838 2.21009e-08 0.0186994)
(0.0180592 2.22607e-08 0.0158034)
(0.0172315 8.13861e-09 0.0132102)
(0.0213927 -1.09861e-05 0.0441317)
(0.0217465 -5.16939e-06 0.0392021)
(0.021422 -2.16981e-06 0.0344915)
(0.0206492 -8.11803e-07 0.0301242)
(0.0196431 -2.4896e-07 0.0261323)
(0.0185737 -4.42313e-08 0.0225033)
(0.0175586 1.67442e-08 0.0192128)
(0.0166679 2.51975e-08 0.0162409)
(0.0159328 1.99417e-08 0.0135753)
(0.0153566 6.96518e-09 0.0112085)
(0.141374 -9.96609e-05 0.210551)
(0.265552 -0.000180941 0.0326419)
(0.11168 -0.000172761 0.12301)
(0.172463 -0.000266426 0.0639332)
(0.147327 -0.000165579 0.0162228)
(0.0874775 -0.000190342 0.0958344)
(0.131254 -0.000267706 0.0708346)
(0.133206 -0.000200725 0.0378506)
(0.12195 -0.000168046 0.00622151)
(0.0722865 -0.000130781 0.0742217)
(0.0989109 -0.000227097 0.0703153)
(0.11701 -0.000198285 0.0478471)
(0.115429 -0.000179063 0.0178421)
(0.0979107 -8.74135e-05 0.00337482)
(0.0611023 -7.58253e-05 0.0616721)
(0.0793994 -0.000136338 0.0631528)
(0.0983098 -0.000164976 0.0524743)
(0.106198 -0.000161775 0.0279972)
(0.0960918 -8.41192e-05 0.0103458)
(0.0837707 -4.82613e-05 0.00193369)
(0.0527676 -3.22747e-05 0.0522221)
(0.0656349 -6.85194e-05 0.0558485)
(0.08226 -9.66259e-05 0.0515791)
(0.09407 -0.00011994 0.0354218)
(0.0922152 -7.09219e-05 0.017561)
(0.0830006 -4.2878e-05 0.00617008)
(0.072907 -1.82296e-05 0.0012275)
(0.0461739 -1.29772e-05 0.0449734)
(0.0557777 -2.65494e-05 0.0488448)
(0.068904 -4.81922e-05 0.0485152)
(0.0817855 -6.78516e-05 0.0391966)
(0.0859518 -5.20642e-05 0.0240832)
(0.0811195 -3.41473e-05 0.0110386)
(0.072569 -1.47501e-05 0.00396125)
(0.0646664 -7.29943e-06 0.000810674)
(0.0408321 -4.52639e-06 0.0390334)
(0.0482413 -9.85065e-06 0.0428085)
(0.0584871 -1.8696e-05 0.0442699)
(0.0702361 -3.28566e-05 0.0400137)
(0.0780654 -3.1009e-05 0.0289463)
(0.0777477 -2.40668e-05 0.0161047)
(0.0716645 -1.10119e-05 0.00723772)
(0.0644952 -5.54809e-06 0.00262911)
(0.0580888 -2.3765e-06 0.000551782)
(0.036418 -1.50388e-06 0.0340472)
(0.0423066 -3.14471e-06 0.0375679)
(0.0503232 -6.81457e-06 0.0398593)
(0.0603138 -1.27784e-05 0.0386661)
(0.0693791 -1.63415e-05 0.0317588)
(0.0728921 -1.44742e-05 0.020726)
(0.0699049 -7.55827e-06 0.0109203)
(0.0640232 -3.87513e-06 0.00485712)
(0.0579968 -1.61866e-06 0.0017932)
(0.052777 -7.26355e-07 0.000381688)
(0.0327349 -4.09485e-07 0.0297512)
(0.0375109 -9.08949e-07 0.033013)
(0.043887 -2.03505e-06 0.0355982)
(0.0520798 -4.43118e-06 0.0361524)
(0.0609054 -6.85096e-06 0.0325593)
(0.0668363 -7.65129e-06 0.0242906)
(0.06708 -4.58741e-06 0.0146956)
(0.0630671 -2.41572e-06 0.00747649)
(0.0577398 -9.83048e-07 0.00333093)
(0.052725 -4.12364e-07 0.00124182)
(0.0484423 -1.49734e-07 0.000266378)
(0.0296497 -6.30171e-08 0.0259756)
(0.0335784 -1.54912e-07 0.0289972)
(0.0387286 -4.65631e-07 0.0316452)
(0.0453926 -1.14595e-06 0.0331036)
(0.0532394 -2.35295e-06 0.0318224)
(0.0601972 -3.21987e-06 0.0264199)
(0.0631483 -2.40695e-06 0.018123)
(0.0614313 -1.22655e-06 0.0103646)
(0.0572073 -4.39453e-07 0.00518393)
(0.0525789 -1.57389e-07 0.00231384)
(0.0484119 -2.27435e-08 0.000867226)
(0.0449027 6.20558e-09 0.00018629)
(0.0270729 5.71968e-09 0.0225991)
(0.0303281 4.47349e-09 0.0254104)
(0.0345425 -3.62246e-08 0.0280141)
(0.0399746 -1.46622e-07 0.0299175)
(0.0466585 -3.92164e-07 0.0300793)
(0.0535939 -7.28118e-07 0.0271054)
(0.0583379 -7.06127e-07 0.0207627)
(0.058969 -3.93764e-07 0.0132771)
(0.056259 -1.11064e-07 0.00731861)
(0.0522724 -1.98872e-08 0.00362428)
(0.0483262 1.31391e-08 0.00161879)
(0.0448845 2.24462e-08 0.000606736)
(0.0420278 1.51473e-08 0.000129796)
(0.0663352 -0.000140113 0.121368)
(0.0663505 -0.000169347 0.100657)
(0.0613374 -0.000128389 0.0794423)
(0.0550993 -8.17606e-05 0.0656365)
(0.049122 -3.79347e-05 0.0549662)
(0.0438025 -1.62198e-05 0.0468704)
(0.0391968 -6.01734e-06 0.0403698)
(0.0352338 -2.15572e-06 0.035014)
(0.031836 -6.75009e-07 0.0304685)
(0.0289354 -1.71248e-07 0.02652)
(0.0264798 -1.47187e-08 0.0230205)
(0.0244292 7.17498e-09 0.0198735)
(0.0474632 -0.000132644 0.0988324)
(0.0486998 -0.000112417 0.0814975)
(0.0471128 -7.97486e-05 0.0683601)
(0.0440438 -4.11495e-05 0.0573908)
(0.0404823 -1.89938e-05 0.0487824)
(0.0369292 -7.50936e-06 0.0418254)
(0.0336116 -2.83667e-06 0.0361185)
(0.0306185 -9.54703e-07 0.031314)
(0.0279769 -2.7464e-07 0.0271757)
(0.0256898 -4.95898e-08 0.0235356)
(0.0237503 1.19549e-08 0.0202824)
(0.0221447 9.35587e-09 0.0173477)
(0.0358788 -9.6396e-05 0.0789935)
(0.0378652 -7.46528e-05 0.0685783)
(0.0376618 -4.27664e-05 0.0587011)
(0.0361249 -2.1363e-05 0.0502928)
(0.0339044 -9.04862e-06 0.0431989)
(0.0314429 -3.59913e-06 0.0372673)
(0.0289972 -1.28464e-06 0.0322464)
(0.0267081 -4.05235e-07 0.0279263)