/*--------------------------------*- C++ -*----------------------------------*\
  =========                 |
  \\      /  F ield         | OpenFOAM: The Open Source CFD Toolbox
   \\    /   O peration     | Website:  https://openfoam.org
    \\  /    A nd           | Version:  7
     \\/     M anipulation  |
\*---------------------------------------------------------------------------*/
FoamFile
{
    version     2.0;
    format      ascii;
    class       surfaceScalarField;
    location    "100";
    object      phi;
}
// * * * * * * * * * * * * * * * * * * * * * * * * * * * * * * * * * * * * * //

dimensions      [0 3 -1 0 0 0 0];

internalField   nonuniform List<scalar> 
127637
(
-3.65347e-14
6.46596e-12
3.1681e-11
-1.01112e-13
8.03207e-12
3.5238e-11
-6.68046e-14
1.38006e-11
4.01809e-11
-8.46843e-14
5.8382e-14
3.17073e-11
-1.15919e-13
9.06087e-12
3.90625e-11
-1.36489e-13
1.70896e-11
4.46927e-11
-1.43996e-13
1.07135e-13
3.51902e-11
-1.34121e-13
2.22359e-11
5.06958e-11
-1.08801e-13
3.06237e-13
4.00418e-11
-1.68701e-14
5.46434e-13
3.11777e-11
-1.37981e-13
1.01883e-11
4.32486e-11
-1.60437e-13
1.92978e-11
4.95445e-11
-1.89426e-13
1.20821e-13
3.89871e-11
-2.1177e-13
2.73545e-11
5.63846e-11
-1.82243e-13
4.34332e-13
4.44389e-11
-3.58114e-14
6.15813e-13
3.45933e-11
-2.63252e-13
3.16238e-11
6.363e-11
-1.40703e-13
7.93929e-13
5.03489e-11
-2.12013e-14
1.19861e-12
3.94108e-11
-1.22991e-14
7.27059e-14
3.11173e-11
-1.23818e-13
1.12634e-11
4.7767e-11
-1.82243e-13
2.17034e-11
5.48528e-11
-2.21594e-13
1.61124e-13
4.31197e-11
-2.41369e-13
3.0906e-11
6.25066e-11
-2.4077e-13
4.90307e-13
4.92336e-11
-5.55079e-14
6.85967e-13
3.83208e-11
-3.51861e-13
3.84839e-11
7.07613e-11
-2.31757e-13
1.03432e-12
5.58757e-11
-4.52312e-14
1.35039e-12
4.37284e-11
-2.45355e-14
8.05653e-14
3.45249e-11
-4.5768e-13
4.17222e-11
7.92967e-11
-1.84059e-13
1.66795e-12
6.294e-11
-2.64898e-14
1.98174e-12
4.95922e-11
-1.55842e-14
1.70076e-13
3.93291e-11
-4.83384e-15
4.09003e-14
3.10812e-11
-1.13111e-13
1.24356e-11
5.26397e-11
-1.64919e-13
2.4004e-11
6.05823e-11
-2.34861e-13
1.87512e-13
4.75927e-11
-2.57891e-13
3.47672e-11
6.92022e-11
-2.80436e-13
6.01459e-13
5.44521e-11
-7.36073e-14
7.6303e-13
4.23747e-11
-3.84861e-13
4.34852e-11
7.8445e-11
-3.05882e-13
1.16722e-12
6.19038e-11
-7.0209e-14
1.50431e-12
4.84402e-11
-3.67981e-14
8.92823e-14
3.82438e-11
-5.73941e-13
5.00261e-11
8.81684e-11
-2.96108e-13
2.06296e-12
6.98447e-11
-5.68699e-14
2.23127e-12
5.50251e-11
-3.10144e-14
1.88453e-13
4.36359e-11
-1.03796e-14
4.55918e-14
3.44848e-11
-6.82988e-13
5.21973e-11
9.79017e-11
-2.41866e-13
3.09632e-12
7.81102e-11
-3.27566e-14
2.90395e-12
6.20505e-11
-1.96582e-14
2.9768e-13
4.94843e-11
-6.09738e-15
9.05801e-14
3.92855e-11
-3.24602e-15
5.7785e-15
3.10787e-11
-9.33739e-14
1.36599e-11
5.78589e-11
-1.49291e-13
2.65073e-11
6.67606e-11
-2.3667e-13
2.27497e-13
5.2414e-11
-2.33075e-13
3.84703e-11
7.64296e-11
-2.97528e-13
6.86156e-13
6.01007e-11
-8.9302e-14
8.43786e-13
4.67646e-11
-3.85366e-13
4.89268e-11
8.6845e-11
-3.54441e-13
1.38717e-12
6.8465e-11
-9.30493e-14
1.67342e-12
5.35645e-11
-4.87369e-14
9.95751e-14
4.22871e-11
-6.1234e-13
5.64942e-11
9.77416e-11
-3.88967e-13
2.32591e-12
7.73792e-11
-8.84149e-14
2.48552e-12
6.09542e-11
-4.65387e-14
2.08875e-13
4.83361e-11
-1.65119e-14
5.06841e-14
3.81992e-11
-8.63439e-13
6.15243e-11
1.08832e-10
-3.79055e-13
3.69657e-12
8.66719e-11
-7.10764e-14
3.26586e-12
6.88484e-11
-3.90328e-14
3.29884e-13
5.49031e-11
-1.31208e-14
1.00962e-13
4.35875e-11
-6.78309e-15
6.42557e-15
3.4482e-11
-8.69168e-13
6.26261e-11
1.19431e-10
-3.14133e-13
5.23048e-12
9.60816e-11
-3.9875e-14
3.96872e-12
7.70853e-11
-2.46827e-14
4.64746e-13
6.19082e-11
-7.65324e-15
1.51099e-13
4.94314e-11
-4.11086e-15
1.32643e-14
3.92821e-11
-1.82895e-15
1.95803e-15
3.10785e-11
-7.54805e-14
1.49678e-11
6.34185e-11
-1.23922e-13
2.91225e-11
7.33783e-11
-2.27253e-13
2.64715e-13
5.75847e-11
-2.08762e-13
4.2491e-11
8.42225e-11
-2.99467e-13
8.00798e-13
6.61893e-11
-1.02138e-13
9.31204e-13
5.14956e-11
-3.46662e-13
5.41684e-11
9.59137e-11
-3.75995e-13
1.57005e-12
7.55673e-11
-1.12952e-13
1.8509e-12
5.91135e-11
-5.98922e-14
1.10669e-13
4.66651e-11
-5.84781e-13
6.35598e-11
1.08202e-10
-4.47266e-13
2.71061e-12
8.55799e-11
-1.17131e-13
2.76493e-12
6.74022e-11
-6.16167e-14
2.32744e-13
5.34464e-11
-2.30676e-14
5.60891e-14
4.22375e-11
-9.2247e-13
6.93792e-11
1.20645e-10
-4.93851e-13
4.16196e-12
9.60203e-11
-1.10752e-13
3.63752e-12
7.62669e-11
-5.85788e-14
3.65686e-13
6.08169e-11
-2.08731e-14
1.12235e-13
4.82823e-11
-1.06173e-14
7.08372e-15
3.8196e-11
-1.16217e-12
7.25836e-11
1.32736e-10
-4.81748e-13
6.093e-12
1.06603e-10
-8.80873e-14
4.45551e-12
8.55305e-11
-4.88489e-14
5.15176e-13
6.86873e-11
-1.65064e-14
1.68425e-13
5.48444e-11
-8.58432e-15
1.47484e-14
4.35837e-11
-3.85546e-15
2.10231e-15
3.44818e-11
-9.45632e-13
7.25088e-11
1.43564e-10
-3.95094e-13
8.15381e-12
1.16903e-10
-4.74418e-14
5.17503e-12
9.49228e-11
-3.08058e-14
6.81683e-13
7.68992e-11
-9.53747e-15
2.23696e-13
6.18451e-11
-5.1821e-15
2.28503e-14
4.9427e-11
-2.30591e-15
4.32921e-15
3.9282e-11
-1.09724e-15
1.52613e-16
3.10795e-11
-5.67685e-14
1.63447e-11
6.92976e-11
-1.00409e-13
3.19146e-11
8.04278e-11
-2.11685e-13
3.06422e-13
6.30965e-11
-1.74455e-13
4.66913e-11
9.25698e-11
-2.87611e-13
9.12033e-13
7.27192e-11
-1.11427e-13
1.02348e-12
5.65705e-11
-3.06868e-13
5.98438e-11
1.05691e-10
-3.77944e-13
1.80263e-12
8.32227e-11
-1.29151e-13
2.04298e-12
6.50937e-11
-6.99094e-14
1.23213e-13
5.13824e-11
-5.23932e-13
7.04144e-11
1.19499e-10
-4.74001e-13
3.05311e-12
9.44573e-11
-1.42242e-13
3.05867e-12
7.43846e-11
-7.57309e-14
2.58532e-13
5.89798e-11
-2.99063e-14
6.20256e-14
4.66099e-11
-8.61432e-13
7.80179e-11
1.33547e-10
-5.62538e-13
4.78655e-12
1.06195e-10
-1.46659e-13
4.04608e-12
8.43346e-11
-7.75339e-14
4.07186e-13
6.72467e-11
-2.91661e-14
1.24211e-13
5.33865e-11
-1.4727e-14
7.90624e-15
4.22338e-11
-1.27493e-12
8.16712e-11
1.47136e-10
-6.21943e-13
6.84823e-12
1.18099e-10
-1.37727e-13
4.96105e-12
9.47464e-11
-7.33045e-14
5.712e-13
7.60858e-11
-2.62657e-14
1.87178e-13
6.07517e-11
-1.34381e-14
1.62604e-14
4.8278e-11
-6.08352e-15
2.40124e-15
3.81958e-11
-1.38917e-12
8.28174e-11
1.59521e-10
-5.9924e-13
9.34023e-12
1.29693e-10
-1.07831e-13
5.79653e-12
1.05322e-10
-6.06978e-14
7.56013e-13
8.53196e-11
-2.06394e-14
2.49289e-13
6.86175e-11
-1.08151e-14
2.53694e-14
5.48395e-11
-4.87454e-15
4.6501e-15
4.35836e-11
-2.3035e-15
2.34205e-16
3.44829e-11
-8.92126e-13
8.12458e-11
1.69556e-10
-4.73587e-13
1.18339e-11
1.40357e-10
-5.47495e-14
6.51501e-12
1.15618e-10
-3.81379e-14
9.58495e-13
9.46841e-11
-1.17769e-14
3.09373e-13
7.68252e-11
-6.49359e-15
3.50568e-14
6.18394e-11
-2.89561e-15
7.20302e-15
4.9427e-11
-1.39773e-15
3.76762e-16
3.92832e-11
-6.35908e-16
2.74421e-17
3.10801e-11
-3.9837e-14
1.77932e-11
7.54769e-11
-7.62565e-14
3.48532e-11
8.78825e-11
-1.91825e-13
3.47449e-13
6.89303e-11
-1.42437e-13
5.11723e-11
1.01462e-10
-2.67819e-13
1.03458e-12
7.96798e-11
-1.17171e-13
1.12168e-12
6.19805e-11
-2.58503e-13
6.57721e-11
1.16164e-10
-3.62977e-13
2.03374e-12
9.14331e-11
-1.40918e-13
2.2459e-12
7.15085e-11
-7.83798e-14
1.3669e-13
5.64423e-11
-4.59582e-13
7.78134e-11
1.31677e-10
-4.7553e-13
3.46866e-12
1.04026e-10
-1.62606e-13
3.3765e-12
8.19095e-11
-8.83922e-14
2.87556e-13
6.4942e-11
-3.68087e-14
6.82897e-14
5.1321e-11
-7.72275e-13
8.64898e-11
1.47486e-10
-5.95045e-13
5.37402e-12
1.17211e-10
-1.78184e-13
4.47657e-12
9.30709e-11
-9.53062e-14
4.52103e-13
7.42088e-11
-3.78126e-14
1.37378e-13
5.8913e-11
-1.90596e-14
8.70941e-15
4.66055e-11
-1.19199e-12
9.17401e-11
1.62856e-10
-7.02019e-13
7.80289e-12
1.30611e-10
-1.82348e-13
5.51708e-12
1.04769e-10
-9.69852e-14
6.35568e-13
8.41299e-11
-3.67091e-14
2.07204e-13
6.71741e-11
-1.86361e-14
1.81415e-14
5.33816e-11
-8.51414e-15
2.56337e-15
4.22335e-11
-1.59814e-12
9.29283e-11
1.76815e-10
-7.68792e-13
1.04782e-11
1.43676e-10
-1.69519e-13
6.45095e-12
1.16671e-10
-9.10448e-14
8.38422e-13
9.45095e-11
-3.28569e-14
2.7697e-13
7.60082e-11
-1.69307e-14
2.80097e-14
6.07461e-11
-7.69159e-15
5.31008e-15
4.82778e-11
-3.63024e-15
1.85725e-16
3.81969e-11
-1.48856e-12
9.17574e-11
1.88362e-10
-7.19454e-13
1.34056e-11
1.55702e-10
-1.29651e-13
7.27907e-12
1.28285e-10
-7.47393e-14
1.0636e-12
1.05051e-10
-2.5606e-14
3.44612e-13
8.5238e-11
-1.35444e-14
3.88908e-14
6.8611e-11
-6.13419e-15
7.81322e-15
5.48395e-11
-2.92523e-15
5.6021e-16
4.35849e-11
-1.32509e-15
-8.62997e-17
3.44836e-11
-7.49606e-13
8.81838e-11
1.96174e-10
-5.37546e-13
1.60902e-11
1.65837e-10
-6.10519e-14
7.96715e-12
1.38966e-10
-4.66733e-14
1.30228e-12
1.15321e-10
-1.4379e-14
4.0881e-13
9.4599e-11
-8.07572e-15
5.04622e-14
7.68179e-11
-3.61667e-15
1.06517e-14
6.18395e-11
-1.7705e-15
6.89226e-16
4.94285e-11
-7.94895e-16
5.5944e-17
3.9284e-11
-3.28776e-16
-4.93431e-18
3.10805e-11
-2.44317e-14
1.93019e-11
8.19149e-11
-5.43412e-14
3.79437e-11
9.5718e-11
-1.70378e-13
3.89344e-13
7.50661e-11
-1.10304e-13
5.58875e-11
1.10865e-10
-2.427e-13
1.15765e-12
8.70472e-11
-1.19254e-13
1.22491e-12
6.77074e-11
-2.133e-13
7.20906e-11
1.2732e-10
-3.37897e-13
2.28589e-12
1.00185e-10
-1.48165e-13
2.46181e-12
7.83469e-11
-8.50359e-14
1.51362e-13
6.18359e-11
-3.90161e-13
8.55414e-11
1.44722e-10
-4.56625e-13
3.88932e-12
1.14289e-10
-1.77436e-13
3.71252e-12
8.99813e-11
-9.9107e-14
3.1876e-13
7.13371e-11
-4.35293e-14
7.51255e-14
5.63739e-11
-6.74664e-13
9.56067e-11
1.62511e-10
-5.95543e-13
6.06174e-12
1.29084e-10
-2.03641e-13
4.9423e-12
1.02486e-10
-1.11237e-13
5.02459e-13
8.17105e-11
-4.65408e-14
1.51253e-13
6.48676e-11
-2.35413e-14
9.71872e-15
5.13158e-11
-1.07713e-12
1.0176e-10
1.79847e-10
-7.40957e-13
8.74091e-12
1.44158e-10
-2.21681e-13
6.10479e-12
1.15622e-10
-1.19235e-13
7.0539e-13
9.28399e-11
-4.75919e-14
2.29126e-13
7.41279e-11
-2.41188e-14
1.99723e-14
5.89073e-11
-1.11277e-14
2.93951e-15
4.66052e-11
-1.52675e-12
1.04199e-10
1.95682e-10
-8.62606e-13
1.1858e-11
1.58894e-10
-2.24607e-13
7.17126e-12
1.29012e-10
-1.20399e-13
9.3226e-13
1.04501e-10
-4.59363e-14
3.06648e-13
8.40434e-11
-2.34755e-14
3.11899e-14
6.71677e-11
-1.07739e-14
5.66637e-15
5.33813e-11
-5.07548e-15
2.89259e-16
4.22348e-11
-1.82311e-12
1.02659e-10
2.08766e-10
-9.22373e-13
1.50105e-11
1.72486e-10
-2.05587e-13
8.0952e-12
1.42107e-10
-1.12007e-13
1.17983e-12
1.16367e-10
-4.07973e-14
3.82733e-13
9.44189e-11
-2.12054e-14
4.29796e-14
7.60009e-11
-9.68193e-15
8.84851e-15
6.0746e-11
-4.61418e-15
4.57825e-16
4.82793e-11
-2.07977e-15
1.89747e-18
3.81977e-11
-1.45804e-12
9.88301e-11
2.17887e-10
-8.26676e-13
1.80971e-11
1.83959e-10
-1.5227e-13
8.88041e-12
1.54192e-10
-9.0945e-14
1.44583e-12
1.27947e-10
-3.14623e-14
4.55038e-13
1.04958e-10
-1.68364e-14
5.59424e-14
8.52298e-11
-7.67595e-15
1.16293e-14
6.86112e-11
-3.6985e-15
9.30968e-16
5.48411e-11
-1.67795e-15
-1.78069e-16
4.35858e-11
-6.96365e-16
1.07707e-16
3.4484e-11
-5.82207e-13
9.27167e-11
2.21702e-10
-5.78721e-13
2.05888e-11
1.92254e-10
-6.6094e-14
9.48535e-12
1.64385e-10
-5.62078e-14
1.71388e-12
1.38611e-10
-1.73279e-14
5.22105e-13
1.15225e-10
-9.95314e-15
6.96014e-14
9.45898e-11
-4.48769e-15
1.4716e-14
7.68183e-11
-2.22637e-15
1.10727e-15
6.18413e-11
-9.92327e-16
7.06679e-17
4.94294e-11
-4.32009e-16
1.49323e-17
3.92844e-11
-2.0706e-16
1.67561e-17
3.10807e-11
-1.10762e-14
2.08608e-11
8.8563e-11
-3.44795e-14
4.11623e-11
1.03882e-10
-1.48702e-13
4.30731e-13
8.14625e-11
-8.1198e-14
6.08451e-11
1.20749e-10
-2.15548e-13
1.28422e-12
9.4796e-11
-1.17997e-13
1.33316e-12
7.37317e-11
-1.69275e-13
7.87373e-11
1.39118e-10
-3.06223e-13
2.54206e-12
1.09449e-10
-1.50802e-13
2.68883e-12
8.55859e-11
-8.96311e-14
1.66815e-13
6.75452e-11
-3.25387e-13
9.3768e-11
1.58618e-10
-4.2491e-13
4.34477e-12
1.25229e-10
-1.86545e-13
4.07005e-12
9.85861e-11
-1.07523e-13
3.52673e-13
7.8154e-11
-4.97927e-14
8.22356e-14
6.17598e-11
-5.76805e-13
1.0513e-10
1.78607e-10
-5.71721e-13
6.76809e-12
1.41819e-10
-2.22235e-13
5.43515e-12
1.12585e-10
-1.24731e-13
5.56623e-13
8.97569e-11
-5.50363e-14
1.6643e-13
7.12543e-11
-2.80684e-14
1.068e-14
5.63677e-11
-9.42837e-13
1.12516e-10
1.9816e-10
-7.39925e-13
9.81066e-12
1.58761e-10
-2.533e-13
6.74053e-12
1.27317e-10
-1.39163e-13
7.83306e-13
1.02225e-10
-5.85794e-14
2.52347e-13
8.16203e-11
-2.97863e-14
2.22811e-14
6.48609e-11
-1.39065e-14
3.10336e-15
5.13153e-11
-1.40265e-12
1.1562e-10
2.16087e-10
-9.09306e-13
1.32609e-11
1.75373e-10
-2.73324e-13
7.93568e-12
1.42376e-10
-1.48048e-13
1.03426e-12
1.1532e-10
-5.95563e-14
3.39048e-13
9.27435e-11
-3.03817e-14
3.43813e-14
7.41204e-11
-1.40798e-14
6.50659e-15
5.8907e-11
-6.64227e-15
2.0965e-16
4.66065e-11
-1.80872e-12
1.14851e-10
2.31011e-10
-1.03438e-12
1.69005e-11
1.90752e-10
-2.73111e-13
8.99417e-12
1.57139e-10
-1.48053e-13
1.31104e-12
1.28669e-10
-5.70624e-14
4.23799e-13
1.044e-10
-2.93967e-14
4.7791e-14
8.40351e-11
-1.35713e-14
9.52949e-15
6.71675e-11
-6.44652e-15
6.92264e-16
5.33829e-11
-2.91519e-15
-1.18053e-16
4.22355e-11
-1.91566e-12
1.1028e-10
2.41469e-10
-1.06525e-12
2.02283e-11
2.03786e-10
-2.44432e-13
9.8681e-12
1.70805e-10
-1.36128e-13
1.60417e-12
1.41728e-10
-5.01935e-14
5.05163e-13
1.16263e-10
-2.63605e-14
6.18863e-14
9.44095e-11
-1.21167e-14
1.3095e-14
7.6001e-11
-5.83653e-15
8.36377e-16
6.07478e-11
-2.63078e-15
5.03327e-18
4.82802e-11
-1.10753e-15
2.19244e-17
3.81981e-11
-1.33756e-12
1.0342e-10
2.46196e-10
-9.06914e-13
2.3053e-11
2.1326e-10
-1.74175e-13
1.05523e-11
1.82395e-10
-1.08986e-13
1.90348e-12
1.53787e-10
-3.82025e-14
5.80635e-13
1.27842e-10
-2.07389e-14
7.71495e-14
1.04948e-10
-9.53558e-15
1.61777e-14
8.52302e-11
-4.64536e-15
1.40477e-15
6.86132e-11
-2.11359e-15
-2.19181e-16
5.48421e-11
-8.95213e-16
2.52007e-16
4.35863e-11
-3.93922e-16
-9.97779e-17
3.44842e-11
-4.39604e-13
9.43925e-11
2.441e-10
-5.93887e-13
2.48738e-11
2.18011e-10
-7.04546e-14
1.09886e-11
1.90821e-10
-6.6284e-14
2.18403e-12
1.63981e-10
-2.05846e-14
6.48211e-13
1.38505e-10
-1.21324e-14
9.28605e-14
1.15213e-10
-5.52066e-15
1.94426e-14
9.45906e-11
-2.77337e-15
1.65353e-15
7.68206e-11
-1.23553e-15
9.51784e-17
6.18425e-11
-5.60677e-16
7.0166e-17
4.943e-11
-2.42427e-16
3.60054e-17
3.92847e-11
-3.75157e-17
-4.64253e-17
3.10808e-11
3.07468e-16
2.2455e-11
9.53587e-11
-1.72515e-14
4.44875e-11
1.12312e-10
-1.27947e-13
4.7192e-13
8.80703e-11
-5.49678e-14
6.60073e-11
1.31047e-10
-1.88126e-13
1.41122e-12
1.02874e-10
-1.13783e-13
1.44571e-12
8.00125e-11
-1.29565e-13
8.57234e-11
1.5152e-10
-2.71971e-13
2.80662e-12
1.19192e-10
-1.49204e-13
2.92685e-12
9.32006e-11
-9.20671e-14
1.83125e-13
7.3551e-11
-2.64135e-13
1.02419e-10
1.73315e-10
-3.85131e-13
4.81158e-12
1.36809e-10
-1.89864e-13
4.44601e-12
1.07695e-10
-1.13334e-13
3.88411e-13
8.53701e-11
-5.53144e-14
8.99248e-14
6.74608e-11
-4.8546e-13
1.15254e-10
1.95754e-10
-5.3182e-13
7.52825e-12
1.55395e-10
-2.33618e-13
5.95953e-12
1.23351e-10
-1.35326e-13
6.15403e-13
9.8334e-11
-6.29552e-14
1.82181e-13
7.80618e-11
-3.25103e-14
1.18861e-14
6.17524e-11
-8.11814e-13
1.2376e-10
2.17782e-10
-7.1025e-13
1.09217e-11
1.74424e-10
-2.76467e-13
7.41409e-12
1.39863e-10
-1.56065e-13
8.67188e-13
1.12292e-10
-6.92694e-14
2.77626e-13
8.96564e-11
-3.55135e-14
2.44583e-14
7.12463e-11
-1.6802e-14
3.5761e-15
5.6367e-11
-1.23815e-12
1.27865e-10
2.3808e-10
-9.06998e-13
1.48319e-11
1.93137e-10
-3.12326e-13
8.76252e-12
1.56778e-10
-1.72795e-13
1.14753e-12
1.26978e-10
-7.3312e-14
3.73486e-13
1.02117e-10
-3.75159e-14
3.82698e-14
8.16115e-11
-1.76051e-14
6.85808e-15
6.48604e-11
-8.31596e-15
3.57925e-16
5.13167e-11
-1.70409e-12
1.27447e-10
2.55084e-10
-1.09161e-12
1.88726e-11
2.10533e-10
-3.32937e-13
9.9528e-12
1.73416e-10
-1.8209e-13
1.45392e-12
1.4199e-10
-7.39887e-14
4.68478e-13
1.15208e-10
-3.80467e-14
5.27184e-14
9.27339e-11
-1.77359e-14
1.08391e-14
7.41202e-11
-8.44263e-15
5.11243e-16
5.89087e-11
-3.82013e-15
2.53974e-17
4.66074e-11
-1.99629e-12
1.23083e-10
2.67164e-10
-1.20132e-12
2.26858e-11
2.25362e-10
-3.26447e-13
1.09564e-11
1.88871e-10
-1.79886e-13
1.78157e-12
1.56712e-10
-7.02444e-14
5.59363e-13
1.28554e-10
-3.65373e-14
6.87049e-14
1.0439e-10
-1.69956e-14
1.41954e-14
8.40352e-11
-8.15094e-15
1.15614e-15
6.71695e-11
-3.69906e-15
-2.51268e-16
5.33839e-11
-1.55637e-15
1.56797e-16
4.22361e-11
-1.88444e-12
1.15155e-10
2.72819e-10
-1.17959e-12
2.57278e-11
2.36242e-10
-2.83719e-13
1.17166e-11
2.02047e-10
-1.62939e-13
2.11225e-12
1.70351e-10
-6.10584e-14
6.44291e-13
1.41612e-10
-3.24693e-14
8.54026e-14
1.16251e-10
-1.50551e-14
1.81049e-14
9.441e-11
-7.33532e-15
1.34419e-15
7.60033e-11
-3.31476e-15
-1.71526e-18
6.0749e-11
-1.42721e-15
7.76459e-17
4.82808e-11
-5.89639e-16
-4.41321e-17
3.81984e-11
-1.17839e-12
1.05009e-10
2.71027e-10
-9.51058e-13
2.77733e-11
2.41833e-10
-1.9422e-13
1.22082e-11
2.11728e-10
-1.28129e-13
2.42607e-12
1.81935e-10
-4.57418e-14
7.20248e-13
1.53672e-10
-2.52646e-14
1.02939e-13
1.2783e-10
-1.17403e-14
2.14578e-14
1.04949e-10
-5.78771e-15
1.97406e-15
8.52327e-11
-2.64771e-15
-2.16393e-16
6.86145e-11
-1.14642e-15
3.67924e-16
5.48428e-11
-4.87866e-16
-1.83996e-16
4.35866e-11
-9.35341e-17
5.95895e-17
3.44844e-11
-3.41008e-13
9.30209e-11
2.61239e-10
-5.84038e-13
2.8443e-11
2.41115e-10
-7.51952e-14
1.23583e-11
2.16717e-10
-7.62223e-14
2.68971e-12
1.90392e-10
-2.40893e-14
7.84044e-13
1.63869e-10
-1.45947e-14
1.20282e-13
1.38492e-10
-6.71964e-15
2.48358e-14
1.15215e-10
-3.41911e-15
2.34228e-15
9.45933e-11
-1.53357e-15
1.18629e-16
7.6822e-11
-7.17121e-16
1.44656e-16
6.18433e-11
-2.84349e-16
2.53152e-17
4.94303e-11
-7.26638e-17
-6.41576e-17
3.92849e-11
-9.56141e-17
1.45181e-16
3.10809e-11
9.77643e-15
2.40662e-11
1.02224e-10
-2.57541e-15
4.78876e-11
1.2093e-10
-1.08686e-13
5.12577e-13
9.48269e-11
-3.22296e-14
7.13397e-11
1.41681e-10
-1.6187e-13
1.53895e-12
1.11219e-10
-1.07194e-13
1.56172e-12
8.65019e-11
-9.4059e-14
9.29966e-11
1.64441e-10
-2.37404e-13
3.07425e-12
1.29349e-10
-1.43875e-13
3.1743e-12
1.0114e-10
-9.23309e-14
1.99929e-13
7.98129e-11
-2.09186e-13
1.11507e-10
1.88763e-10
-3.42099e-13
5.29512e-12
1.48988e-10
-1.87845e-13
4.84015e-12
1.17277e-10
-1.16416e-13
4.26127e-13
9.29608e-11
-5.98224e-14
9.77618e-14
7.34576e-11
-4.00979e-13
1.25894e-10
2.13888e-10
-4.82166e-13
8.31273e-12
1.69764e-10
-2.3777e-13
6.51102e-12
1.34748e-10
-1.42646e-13
6.77378e-13
1.07413e-10
-6.99328e-14
1.99264e-13
8.52677e-11
-3.67093e-14
1.29891e-14
6.7452e-11
-6.88503e-13
1.35694e-10
2.38685e-10
-6.60616e-13
1.2112e-11
1.9112e-10
-2.90599e-13
8.13075e-12
1.53238e-10
-1.69329e-13
9.58033e-13
1.23022e-10
-7.92361e-14
3.04006e-13
9.8222e-11
-4.11297e-14
2.72154e-14
7.80523e-11
-1.97648e-14
3.74926e-15
6.17514e-11
-1.07511e-12
1.40687e-10
2.61648e-10
-8.71075e-13
1.64777e-11
2.1219e-10
-3.40979e-13
9.63987e-12
1.72226e-10
-1.93821e-13
1.26957e-12
1.39482e-10
-8.6687e-14
4.10877e-13
1.12172e-10
-4.47284e-14
4.20616e-14
8.9646e-11
-2.12674e-14
7.92206e-15
7.12455e-11
-1.0091e-14
2.56436e-16
5.63685e-11
-1.52713e-12
1.40955e-10
2.81031e-10
-1.08986e-12
2.10548e-11
2.31855e-10
-3.80689e-13
1.09898e-11
1.90957e-10
-2.12555e-13
1.61185e-12
1.56344e-10
-9.10887e-14
5.16195e-13
1.26852e-10
-4.69742e-14
5.85834e-14
1.02106e-10
-2.21864e-14
1.15388e-14
8.16111e-11
-1.05656e-14
8.52653e-16
6.48622e-11
-4.8087e-15
-1.44771e-16
5.13177e-11
-1.94287e-12
1.3655e-10
2.94983e-10
-1.27345e-12
2.52995e-11
2.48729e-10
-3.99174e-13
1.21231e-11
2.08435e-10
-2.21308e-13
1.97502e-12
1.72936e-10
-9.10988e-14
6.18217e-13
1.41861e-10
-4.72914e-14
7.58599e-14
1.15196e-10
-2.22093e-14
1.60409e-14
9.27338e-11
-1.06805e-14
9.54652e-16
7.41223e-11
-4.83788e-15
6.19545e-17
5.89098e-11
-2.05676e-15
2.46512e-17
4.66079e-11
-2.07418e-12
1.28245e-10
3.01813e-10
-1.34475e-12
2.87663e-11
2.61248e-10
-3.81986e-13
1.29991e-11
2.23417e-10
-2.15334e-13
2.34468e-12
1.88361e-10
-8.55071e-14
7.13347e-13
1.56583e-10
-4.49995e-14
9.47056e-14
1.2854e-10
-2.11261e-14
1.97767e-14
1.0439e-10
-1.02391e-14
1.74446e-15
8.40376e-11
-4.67056e-15
-3.2481e-16
6.71708e-11
-1.99209e-15
3.67886e-16
5.33846e-11
-8.06735e-16
-1.52687e-16
4.22364e-11
-1.76525e-12
1.16742e-10
3.00312e-10
-1.25163e-12
3.09547e-11
2.67892e-10
-3.2082e-13
1.35457e-11
2.34539e-10
-1.91419e-13
2.6923e-12
2.01531e-10
-7.32653e-14
7.98828e-13
1.70224e-10
-3.95459e-14
1.14005e-13
1.41598e-10
-1.85409e-14
2.39174e-14
1.16252e-10
-9.14228e-15
2.00928e-15
9.44127e-11
-4.15199e-15
8.03527e-18
7.60047e-11
-1.82733e-15
1.69322e-16
6.07497e-11
-7.33705e-16
-7.82082e-17
4.82811e-11
-1.55313e-16
-2.56188e-17
3.81986e-11
-1.01843e-12
1.0334e-10
2.90019e-10
-9.55878e-13
3.17033e-11
2.67469e-10
-2.11809e-13
1.37186e-11
2.40459e-10
-1.47221e-13
2.98785e-12
2.11237e-10
-5.38909e-14
8.70534e-13
1.81814e-10
-3.03691e-14
1.33368e-13
1.53658e-10
-1.42944e-14
2.74835e-14
1.27831e-10
-7.14102e-15
2.70193e-15
1.04952e-10
-3.29168e-15
-1.50644e-16
8.52343e-11
-1.45461e-15
4.73273e-16
6.86153e-11
-5.99731e-16
-2.57375e-16
5.48432e-11
-1.47253e-16
1.46238e-16
4.35868e-11
-7.21325e-17
2.11469e-16
3.44845e-11
-2.81768e-13
8.87419e-11
2.71398e-10
-5.53059e-13
3.08548e-11
2.5938e-10
-8.10499e-14
1.34501e-11
2.40104e-10
-8.52237e-14
3.19243e-12
2.16299e-10
-2.77535e-14
9.23484e-13
1.9028e-10
-1.72794e-14
1.51347e-13
1.63856e-10
-8.07136e-15
3.08557e-14
1.38494e-10
-4.16416e-15
3.18488e-15
1.15218e-10
-1.89179e-15
1.68562e-16
9.45951e-11
-9.00613e-16
2.46363e-16
7.68229e-11
-3.37565e-16
7.85385e-18
6.18437e-11
-1.18875e-16
-4.09107e-17
4.94305e-11
-1.01864e-16
3.37811e-16
3.9285e-11
8.20321e-17
-1.33679e-16
3.1081e-11
1.75057e-14
2.56734e-11
1.0907e-10
9.64417e-15
5.1324e-11
1.29636e-10
-9.12655e-14
5.52681e-13
1.01654e-10
-1.2866e-14
7.6792e-11
1.52551e-10
-1.37507e-13
1.66639e-12
1.19751e-10
-9.88407e-14
1.68029e-12
9.31382e-11
-6.33217e-14
1.00509e-10
1.77784e-10
-2.04306e-13
3.34501e-12
1.39842e-10
-1.35535e-13
3.42933e-12
1.09343e-10
-9.05395e-14
2.17216e-13
8.6283e-11
-1.60456e-13
1.20967e-10
2.04859e-10
-2.98716e-13
5.78735e-12
1.61684e-10
-1.81133e-13
5.24988e-12
1.27267e-10
-1.16748e-13
4.65006e-13
1.00875e-10
-6.30891e-14
1.0613e-13
7.971e-11
-3.25513e-13
1.37067e-10
2.32951e-10
-4.28431e-13
9.12717e-12
1.84877e-10
-2.35229e-13
7.08917e-12
1.46737e-10
-1.46528e-13
7.4276e-13
1.16964e-10
-7.56345e-14
2.16639e-13
9.28474e-11
-4.04962e-14
1.43678e-14
7.34471e-11
-5.75725e-13
1.48233e-10
2.60794e-10
-5.99269e-13
1.33467e-11
2.08793e-10
-2.95758e-13
8.88465e-12
1.67395e-10
-1.78503e-13
1.05391e-12
1.34381e-10
-8.80132e-14
3.32467e-13
1.07289e-10
-4.64433e-14
2.9706e-14
8.52563e-11
-2.27115e-14
4.3342e-15
6.74506e-11
-9.18396e-13
1.54278e-10
2.86756e-10
-8.10634e-13
1.82351e-11
2.32502e-10
-3.58407e-13
1.05734e-11
1.88695e-10
-2.10315e-13
1.40147e-12
1.52811e-10
-9.91635e-14
4.50027e-13
1.22888e-10
-5.17966e-14
4.66954e-14
9.82097e-11
-2.50244e-14
8.28414e-15
7.80512e-11
-1.19362e-14
4.69644e-16
6.1753e-11
-1.34079e-12
1.55138e-10
3.08841e-10
-1.04854e-12
2.33565e-11
2.54728e-10
-4.15851e-13
1.20921e-11
2.09773e-10
-2.38491e-13
1.78211e-12
1.7174e-10
-1.07706e-13
5.6779e-13
1.39342e-10
-5.60069e-14
6.44212e-14
1.12158e-10
-2.67993e-14
1.31926e-14
8.96453e-11
-1.28255e-14
6.13952e-16
7.12474e-11
-5.85607e-15
5.53761e-17
5.63695e-11
-1.77901e-12
1.51014e-10
3.24968e-10
-1.27621e-12
2.81702e-11
2.73918e-10
-4.5716e-13
1.33854e-11
2.29518e-10
-2.58414e-13
2.18791e-12
1.90418e-10
-1.12171e-13
6.81292e-13
1.562e-10
-5.83824e-14
8.41281e-14
1.26838e-10
-2.77951e-14
1.71982e-14
1.02106e-10
-1.33627e-14
1.42877e-15
8.16134e-11
-6.09828e-15
-3.15129e-16
6.48634e-11
-2.59334e-15
2.15157e-16
5.13183e-11
-2.09482e-12
1.42215e-10
3.33214e-10
-1.43679e-12
3.20406e-11
2.88334e-10
-4.69223e-13
1.43808e-11
2.46559e-10
-2.65046e-13
2.59839e-12
2.07861e-10
-1.1093e-13
7.88233e-13
1.72792e-10
-5.82479e-14
1.04621e-13
1.41846e-10
-2.76058e-14
2.21663e-14
1.15196e-10
-1.34245e-14
1.54979e-15
9.27364e-11
-6.10098e-15
7.44869e-17
7.41237e-11
-2.63768e-15
8.04713e-17
5.89105e-11
-1.03542e-15
-5.97154e-17
4.66083e-11
-2.05065e-12
1.29782e-10
3.32193e-10
-1.44742e-12
3.45311e-11
2.96244e-10
-4.36146e-13
1.50177e-11
2.59345e-10
-2.5313e-13
2.98724e-12
2.22837e-10
-1.02682e-13
8.84267e-13
1.88219e-10
-5.4806e-14
1.2631e-13
1.56566e-10
-2.60226e-14
2.62544e-14
1.28541e-10
-1.27581e-14
2.44425e-15
1.04393e-10
-5.86129e-15
-3.43016e-16
8.40392e-11
-2.5388e-15
5.44843e-16
6.71716e-11
-1.0227e-15
-2.9098e-16
5.33849e-11
-2.19162e-16
7.6187e-17
4.22365e-11
-1.59855e-12
1.14762e-10
3.21336e-10
-1.27425e-12
3.52964e-11
2.96288e-10
-3.53301e-13
1.52134e-11
2.66366e-10
-2.19949e-13
3.31559e-12
2.33989e-10
-8.64973e-14
9.6508e-13
2.01397e-10
-4.75188e-14
1.47744e-13
1.70207e-10
-2.25873e-14
3.05422e-14
1.41599e-10
-1.12812e-14
2.8548e-15
1.16255e-10
-5.16386e-15
2.58359e-17
9.44145e-11
-2.31985e-15
2.81902e-16
7.60056e-11
-9.09886e-16
-1.38026e-16
6.07501e-11
-2.46512e-16
-1.37977e-17
4.82813e-11
-6.96706e-17
9.52742e-17
3.81987e-11
-8.75956e-13
9.85194e-11
3.0127e-10
-9.23782e-13
3.43536e-11
2.8774e-10
-2.26509e-13
1.4924e-11
2.66409e-10
-1.64798e-13
3.54603e-12
2.39981e-10
-6.23411e-14
1.0248e-12
2.11117e-10
-3.59256e-14
1.67851e-13
1.81798e-10
-1.71736e-14
3.41838e-14
1.5366e-10
-8.71071e-15
3.59223e-15
1.27835e-10
-4.05459e-15
-4.60135e-17
1.04954e-10
-1.82601e-15
5.44319e-16
8.52353e-11
-7.37397e-16
-2.94782e-16
6.86158e-11
-2.21736e-16
2.29267e-16
5.48434e-11
-8.42786e-17
5.65515e-16
4.35869e-11
6.65744e-17
-1.80155e-16
3.44846e-11
-2.47313e-13
8.20158e-11
2.73445e-10
-5.06943e-13
3.18355e-11
2.70924e-10
-8.77896e-14
1.41217e-11
2.58796e-10
-9.25161e-14
3.64096e-12
2.39748e-10
-3.14421e-14
1.05677e-12
2.16197e-10
-2.00769e-14
1.84736e-13
1.90267e-10
-9.54353e-15
3.73594e-14
1.63859e-10
-5.00354e-15
4.18287e-15
1.38498e-10
-2.31312e-15
2.41585e-16
1.1522e-10
-1.11184e-15
3.52653e-16
9.45963e-11
-4.08194e-16
-3.84155e-17
7.68234e-11
-1.75323e-16
5.30127e-18
6.18439e-11
-1.03762e-16
5.51831e-16
4.94307e-11
7.1643e-17
-2.71404e-16
3.92851e-11
-1.60285e-16
4.11104e-16
3.10811e-11
-1.30094e-15
-4.67338e-15
6.952e-15
2.36865e-14
2.72524e-11
1.15793e-10
1.96261e-14
5.47516e-11
1.38317e-10
-7.57935e-14
5.91936e-13
1.08462e-10
3.28151e-15
8.23022e-11
1.63534e-10
-1.15473e-13
1.793e-12
1.28373e-10
-8.93545e-14
1.79995e-12
9.98447e-11
-3.71575e-14
1.08189e-10
1.91425e-10
-1.73597e-13
3.61659e-12
1.50571e-10
-1.24968e-13
3.68993e-12
1.17731e-10
-8.69031e-14
2.34643e-13
9.28999e-11
-1.18346e-13
1.30735e-10
2.21482e-10
-2.57173e-13
6.28739e-12
1.748e-10
-1.70627e-13
5.6721e-12
1.37588e-10
-1.14482e-13
5.05025e-13
1.09053e-10
-6.49575e-14
1.1452e-13
8.61701e-11
-2.59029e-13
1.48693e-10
2.52814e-10
-3.74316e-13
9.96015e-12
2.00632e-10
-2.26815e-13
7.69008e-12
1.59236e-10
-1.46948e-13
8.10216e-13
1.26922e-10
-7.97663e-14
2.35225e-13
1.0075e-10
-4.37023e-14
1.56019e-14
7.96976e-11
-4.75068e-13
1.6139e-10
2.84035e-10
-5.32814e-13
1.46308e-11
2.27381e-10
-2.92579e-13
9.67495e-12
1.82288e-10
-1.83369e-13
1.15498e-12
1.46329e-10
-9.51924e-14
3.61577e-13
1.16826e-10
-5.1233e-14
3.28526e-14
9.28338e-11
-2.55574e-14
4.52752e-15
7.34452e-11
-7.74837e-13
1.6855e-10
3.13313e-10
-7.36117e-13
2.00652e-11
2.54001e-10
-3.64779e-13
1.15558e-11
2.06128e-10
-2.21742e-13
1.54078e-12
1.6692e-10
-1.10142e-13
4.92145e-13
1.34232e-10
-5.84901e-14
5.10344e-14
1.07274e-10
-2.87457e-14
9.60618e-15
8.52547e-11
-1.38258e-14
3.5215e-16
6.74522e-11
-1.1546e-12
1.70157e-10
3.3847e-10
-9.77346e-13
2.58089e-11
2.79111e-10
-4.37202e-13
1.32651e-11
2.29831e-10
-2.58836e-13
1.96573e-12
1.88151e-10
-1.23215e-13
6.22104e-13
1.52654e-10
-6.48506e-14
7.13962e-14
1.22873e-10
-3.15404e-14
1.39281e-14
9.82086e-11
-1.5162e-14
1.10364e-15
7.80531e-11
-6.96902e-15
-1.86807e-16
6.1754e-11
-1.58496e-12
1.66257e-10
3.57114e-10
-1.23219e-12
3.12146e-11
3.00939e-10
-4.99945e-13
1.47299e-11
2.52133e-10
-2.90076e-13
2.41756e-12
2.09169e-10
-1.3264e-13
7.49321e-13
1.71579e-10
-6.9613e-14
9.25976e-14
1.39325e-10
-3.35685e-14
1.95234e-14
1.12158e-10
-1.62252e-14
1.14589e-15
8.96477e-11
-7.4139e-15
1.33754e-16
7.12487e-11
-3.18228e-15
2.48331e-17
5.63702e-11
-1.97021e-12
1.57251e-10
3.67062e-10
-1.4498e-12
3.56214e-11
3.1753e-10
-5.38912e-13
1.58764e-11
2.71497e-10
-3.09672e-13
2.87658e-12
2.28874e-10
-1.36614e-13
8.6875e-13
1.90256e-10
-7.19046e-14
1.15846e-13
1.56182e-10
-3.45601e-14
2.39837e-14
1.26838e-10
-1.67897e-14
2.15194e-15
1.02109e-10
-7.69698e-15
-4.16617e-16
8.16148e-11
-3.31104e-15
5.02834e-16
6.48641e-11
-1.28965e-15
-2.11472e-16
5.13186e-11
-2.15162e-12
1.43842e-10
3.66727e-10
-1.56329e-12
3.8417e-11
3.26953e-10
-5.38867e-13
1.66104e-11
2.86207e-10
-3.11822e-13
3.3094e-12
2.45907e-10
-1.33272e-13
9.76894e-13
2.07703e-10
-7.09418e-14
1.39582e-13
1.72773e-10
-3.40048e-14
2.92649e-14
1.41847e-10
-1.67331e-14
2.35769e-15
1.15199e-10
-7.64697e-15
1.07726e-16
9.27381e-11
-3.36365e-15
1.87893e-16
7.41245e-11
-1.31285e-15
-1.02578e-16
5.89108e-11
-2.96095e-16
-4.73188e-17
4.66085e-11
-1.94758e-12
1.27414e-10
3.55418e-10
-1.49731e-12
3.93065e-11
3.2764e-10
-4.84868e-13
1.68562e-11
2.94537e-10
-2.91223e-13
3.67736e-12
2.58726e-10
-1.21324e-13
1.06803e-12
2.22688e-10
-6.58569e-14
1.63597e-13
1.882e-10
-3.16969e-14
3.36564e-14
1.56568e-10
-1.57422e-14
3.33277e-15
1.28545e-10
-7.296e-15
-2.71081e-16
1.04395e-10
-3.21026e-15
7.05763e-16
8.40401e-11
-1.28851e-15
-4.19269e-16
6.7172e-11
-3.36506e-16
1.92871e-16
5.33852e-11
-6.31428e-17
3.12228e-16
4.22367e-11
-1.41604e-12
1.09332e-10
3.33784e-10
-1.24773e-12
3.82136e-11
3.18743e-10
-3.79071e-13
1.65439e-11
2.9511e-10
-2.46416e-13
3.93457e-12
2.65829e-10
-1.00208e-13
1.13568e-12
2.33856e-10
-5.61874e-14
1.8597e-13
2.01379e-10
-2.71542e-14
3.79232e-14
1.7021e-10
-1.3755e-14
3.89139e-15
1.41603e-10
-6.36613e-15
7.78491e-17
1.16258e-10
-2.9112e-15
4.17443e-16
9.44156e-11
-1.12622e-15
-1.91849e-16
7.60061e-11
-3.69141e-16
4.04316e-17
6.07503e-11
-9.58716e-17
2.78203e-16
4.82815e-11
6.7655e-17
-7.15892e-17
3.81988e-11
-7.54074e-13
9.10233e-11
3.0352e-10
-8.62347e-13
3.54198e-11
3.00559e-10
-2.37538e-13
1.56661e-11
2.87148e-10
-1.79305e-13
4.04378e-12
2.65998e-10
-7.06531e-14
1.17231e-12
2.39872e-10
-4.17033e-14
2.04918e-13
2.11102e-10
-2.03077e-14
4.1407e-14
1.81802e-10
-1.04817e-14
4.67034e-15
1.53664e-10
-4.93687e-15
9.72088e-17
1.27837e-10
-2.26403e-15
6.11515e-16
1.04955e-10
-9.05592e-16
-3.15688e-16
8.52358e-11
-3.16423e-16
2.96476e-16