/*--------------------------------*- C++ -*----------------------------------*\
  =========                 |
  \\      /  F ield         | OpenFOAM: The Open Source CFD Toolbox
   \\    /   O peration     | Website:  https://openfoam.org
    \\  /    A nd           | Version:  7
     \\/     M anipulation  |
\*---------------------------------------------------------------------------*/
FoamFile
{
    version     2.0;
    format      ascii;
    class       volVectorField;
    location    "100";
    object      U;
}
// * * * * * * * * * * * * * * * * * * * * * * * * * * * * * * * * * * * * * //

dimensions      [0 1 -1 0 0 0 0];

internalField   nonuniform List<vector> 
43941
(
(0.6259 0.000252308 0.00178821)
(0.628515 -0.000593697 0.00200351)
(0.626313 0.000201941 0.00560898)
(0.64694 -0.000189704 9.07383e-06)
(0.629235 -0.000373007 0.00204025)
(0.628858 -0.000638692 0.0062755)
(0.647272 -0.000495363 1.78228e-05)
(0.627167 6.54696e-05 0.00988371)
(0.646895 -0.000191873 6.38987e-05)
(0.627353 -2.78294e-05 0.000106463)
(0.630594 -0.000725826 0.00207461)
(0.629581 -0.000421528 0.00639367)
(0.647439 -0.000661609 1.81321e-05)
(0.629558 -0.000766561 0.0110084)
(0.64722 -0.000498102 9.23065e-05)
(0.627401 -8.87771e-05 0.000108154)
(0.62848 -0.00015329 0.0147299)
(0.646802 -0.000198312 0.000228273)
(0.627359 -2.77017e-05 0.000340382)
(0.626351 -1.82626e-05 1.17846e-05)
(0.631497 -0.00057786 0.00207829)
(0.630935 -0.000762857 0.00650231)
(0.647684 -0.000851793 2.28068e-05)
(0.630282 -0.000546763 0.0112259)
(0.647385 -0.000664119 9.40267e-05)
(0.627446 -0.00015494 0.000108765)
(0.630614 -0.000976955 0.0162631)
(0.647111 -0.000506015 0.000280152)
(0.627405 -8.86209e-05 0.000345755)
(0.626355 -5.31734e-05 1.17726e-05)
(0.630199 -0.000403868 0.0200357)
(0.646625 -0.000210059 0.000534944)
(0.627364 -2.75206e-05 0.000616829)
(0.626352 -1.82836e-05 3.91545e-05)
(0.625025 -5.6942e-06 5.67944e-06)
(0.632387 -0.000588731 0.0020839)
(0.631837 -0.000609805 0.00651526)
(0.647854 -0.000914905 2.42801e-05)
(0.631623 -0.000858143 0.0114196)
(0.647629 -0.000853329 0.000108839)
(0.627521 -0.000220683 0.000109413)
(0.631329 -0.000759911 0.0165915)
(0.647274 -0.000671107 0.000285501)
(0.627451 -0.000154941 0.000347718)
(0.626362 -8.76979e-05 1.17751e-05)
(0.631993 -0.00122345 0.0218322)
(0.646908 -0.000520582 0.000612222)
(0.62741 -8.83717e-05 0.000626301)
(0.626357 -5.3196e-05 3.91087e-05)
(0.625029 -1.81588e-05 5.70414e-06)
(0.632154 -0.000602802 0.0256313)
(0.646314 -0.000225927 0.00105725)
(0.62737 -2.72318e-05 0.000946037)
(0.626351 -1.83186e-05 7.5633e-05)
(0.625029 -5.68119e-06 1.82635e-05)
(0.624959 -3.32039e-06 6.75318e-07)
(0.633048 -0.000475915 0.00208388)
(0.632725 -0.000615252 0.00653356)
(0.648029 -0.00095422 2.723e-05)
(0.632523 -0.000690737 0.0114477)
(0.647799 -0.00091625 0.000113697)
(0.627602 -0.000276017 0.000109644)
(0.632643 -0.00102197 0.0168821)
(0.647516 -0.000857821 0.000311937)
(0.627525 -0.000220714 0.000349813)
(0.626373 -0.000122586 1.18819e-05)
(0.632683 -0.00103837 0.0222687)
(0.647067 -0.000684118 0.000623604)
(0.627455 -0.000155001 0.000629873)
(0.626363 -8.77139e-05 3.91242e-05)
(0.625032 -3.23523e-05 5.72706e-06)
(0.633577 -0.00142017 0.0274712)
(0.64656 -0.000540783 0.001158)
(0.627414 -8.79424e-05 0.000959723)
(0.626355 -5.32372e-05 7.55474e-05)
(0.625032 -1.81546e-05 1.83459e-05)
(0.624961 -1.02404e-05 6.7889e-07)
(0.634036 -0.000680795 0.0313144)
(0.645804 -0.000241439 0.0018729)
(0.627372 -2.67114e-05 0.00132977)
(0.626345 -1.83736e-05 0.000123486)
(0.625032 -5.66419e-06 3.34242e-05)
(0.624963 -3.33131e-06 2.21883e-06)
(0.624931 -1.59052e-06 1.93352e-07)
(0.633573 -0.000401819 0.0020843)
(0.633386 -0.000499004 0.00653413)
(0.648169 -0.000927452 2.91154e-05)
(0.633408 -0.000682455 0.0114824)
(0.647974 -0.000955226 0.000123023)
(0.627696 -0.000325435 0.00010989)
(0.633537 -0.000830837 0.0169324)
(0.647686 -0.000920067 0.00032126)
(0.627606 -0.000276082 0.000350591)
(0.626387 -0.000155275 1.19657e-05)
(0.633946 -0.00124046 0.0226611)
(0.647304 -0.000866265 0.000663526)
(0.62753 -0.000220797 0.000633702)
(0.626374 -0.000122596 3.94543e-05)
(0.625038 -4.76243e-05 5.72931e-06)
(0.634227 -0.00131999 0.0279921)
(0.646712 -0.000702916 0.00117822)
(0.627459 -0.00015512 0.000965126)
(0.626361 -8.7726e-05 7.55916e-05)
(0.625036 -3.23551e-05 1.84169e-05)
(0.624963 -1.77344e-05 6.74034e-07)
(0.635123 -0.00148358 0.0329749)
(0.646003 -0.000561367 0.00199031)
(0.627415 -8.71519e-05 0.00134703)
(0.626349 -5.33042e-05 0.000123378)
(0.625035 -1.81415e-05 3.35783e-05)
(0.624965 -1.02546e-05 2.22755e-06)
(0.624933 -4.90657e-06 1.84813e-07)
(0.635431 -0.000625955 0.036837)
(0.645015 -0.000250247 0.00303724)
(0.627364 -2.57621e-05 0.00176776)
(0.626332 -1.84524e-05 0.000185883)
(0.625035 -5.64065e-06 5.1779e-05)
(0.624966 -3.34131e-06 4.20831e-06)
(0.624935 -1.58015e-06 6.19811e-07)
(0.624955 -8.05126e-07 1.32169e-08)
(0.633949 -0.000307148 0.00208374)
(0.63391 -0.0004219 0.00653583)
(0.648294 -0.000877941 3.10324e-05)
(0.634066 -0.000557349 0.0114856)
(0.648114 -0.00092838 0.000129045)
(0.627792 -0.000361592 0.000109956)
(0.634412 -0.000799074 0.0169875)
(0.647861 -0.000958153 0.000337894)
(0.6277 -0.00032551 0.000351416)
(0.626407 -0.00018564 1.2105e-05)
(0.634825 -0.00102215 0.0227426)
(0.647474 -0.000927229 0.00067885)
(0.62761 -0.000276229 0.000635231)
(0.626388 -0.000155292 3.97238e-05)
(0.625045 -6.38231e-05 5.74446e-06)
(0.63541 -0.00146952 0.0284787)
(0.646942 -0.000878343 0.00123319)
(0.627534 -0.000220933 0.000970964)
(0.626372 -0.000122586 7.6163e-05)
(0.625041 -4.76384e-05 1.84272e-05)
(0.624964 -2.5856e-05 6.82731e-07)
(0.635725 -0.00152319 0.0335368)
(0.646144 -0.000723728 0.00202182)
(0.62746 -0.000155206 0.00135433)
(0.626354 -8.77274e-05 0.000123477)
(0.625038 -3.23543e-05 3.36997e-05)
(0.624966 -1.77601e-05 2.21388e-06)
(0.624934 -8.60826e-06 1.92049e-07)
(0.636251 -0.00138383 0.0381667)
(0.645164 -0.000573695 0.00316093)
(0.627405 -8.57019e-05 0.00178699)
(0.626334 -5.33986e-05 0.000185801)
(0.625037 -1.81136e-05 5.20162e-05)
(0.624968 -1.02693e-05 4.21906e-06)
(0.624936 -4.90595e-06 5.95101e-07)
(0.624957 -2.51605e-06 1.97392e-08)
(0.63589 -0.000488385 0.0419005)
(0.643862 -0.000247833 0.00456151)
(0.627334 -2.42006e-05 0.00225849)
(0.626306 -1.8547e-05 0.000266231)
(0.625035 -5.60635e-06 7.36129e-05)
(0.624969 -3.34902e-06 6.75195e-06)
(0.624938 -1.57201e-06 1.13317e-06)
(0.624959 -8.16401e-07 4.52729e-08)
(0.624969 -4.21253e-07 1.53425e-10)
(0.634217 -0.000225429 0.00208326)
(0.634286 -0.000324914 0.0065343)
(0.648396 -0.000802938 3.23897e-05)
(0.634588 -0.000472673 0.0114898)
(0.648239 -0.000878763 0.000135105)
(0.62789 -0.000387145 0.000109991)
(0.635065 -0.000658762 0.0169954)
(0.648001 -0.000931023 0.000348794)
(0.627796 -0.000361677 0.000351664)
(0.62643 -0.000211839 1.22245e-05)
(0.635682 -0.000959259 0.0228224)
(0.647648 -0.000963672 0.000704053)
(0.627704 -0.000325664 0.000636825)
(0.626408 -0.000185661 4.01584e-05)
(0.625055 -8.04273e-05 5.74067e-06)
(0.636263 -0.00123312 0.0286006)
(0.64711 -0.000937617 0.00125659)
(0.627614 -0.000276477 0.000973458)
(0.626386 -0.000155287 7.66451e-05)
(0.625048 -6.38386e-05 1.84744e-05)
(0.624967 -3.44675e-05 6.79385e-07)
(0.636802 -0.00164713 0.0340932)
(0.646362 -0.000891118 0.00209259)
(0.627533 -0.000221048 0.00136233)
(0.626365 -0.000122541 0.000124314)
(0.625044 -4.76503e-05 3.37278e-05)
(0.624968 -2.58872e-05 2.23944e-06)
(0.624935 -1.26297e-05 1.83119e-07)
(0.636801 -0.00158933 0.038717)
(0.645291 -0.000739084 0.00320489)
(0.62745 -0.000154996 0.00179593)
(0.62634 -8.77061e-05 0.000185999)
(0.62504 -3.23454e-05 5.21868e-05)
(0.624969 -1.7785e-05 4.19901e-06)
(0.624937 -8.60878e-06 6.16964e-07)
(0.624958 -4.37046e-06 1.32753e-08)
(0.636509 -0.001165 0.0428484)
(0.643966 -0.000569974 0.00468097)
(0.627373 -8.32624e-05 0.00227733)
(0.626309 -5.35023e-05 0.00026626)
(0.625037 -1.80639e-05 7.39285e-05)
(0.62497 -1.02823e-05 6.75956e-06)
(0.624939 -4.90525e-06 1.09722e-06)
(0.62496 -2.52917e-06 6.40764e-08)
(0.624971 -1.22545e-06 -9.00449e-09)
(0.635032 -0.000336312 0.0461606)
(0.642269 -0.000234335 0.00639574)
(0.627263 -2.20435e-05 0.002797)
(0.626266 -1.86279e-05 0.000367387)
(0.625033 -5.55739e-06 9.91256e-05)
(0.62497 -3.35442e-06 9.9755e-06)
(0.624941 -1.56747e-06 1.75511e-06)
(0.624963 -8.25801e-07 9.18209e-08)
(0.624973 -4.08624e-07 -1.6663e-09)
(0.624979 -1.65184e-07 9.61693e-10)
(0.634397 -0.000147779 0.0020827)
(0.634553 -0.000241246 0.00653298)
(0.648479 -0.000719699 3.34739e-05)
(0.634963 -0.000369867 0.011488)
(0.648341 -0.000803708 0.000139418)
(0.627982 -0.000399574 0.000109967)
(0.635583 -0.000560987 0.0170032)
(0.648126 -0.000881105 0.00035962)
(0.627894 -0.000387232 0.000351818)
(0.626458 -0.000233401 1.23626e-05)
(0.636326 -0.000798864 0.0228379)
(0.647788 -0.000936008 0.000720856)
(0.6278 -0.00036185 0.000637403)
(0.626431 -0.000211871 4.0541e-05)
(0.625068 -9.69019e-05 5.75295e-06)
(0.637092 -0.00113822 0.0287094)
(0.647283 -0.000971652 0.00129165)
(0.627707 -0.000325916 0.000976028)
(0.626406 -0.000185656 7.74098e-05)
(0.625058 -8.04491e-05 1.84653e-05)
(0.62497 -4.34851e-05 6.91463e-07)
(0.637615 -0.00141685 0.0342613)
(0.646527 -0.000949057 0.00212656)
(0.627613 -0.000276794 0.00136601)
(0.626379 -0.000155239 0.00012505)
(0.625051 -6.38532e-05 3.38098e-05)
(0.62497 -3.4509e-05 2.23011e-06)
(0.624936 -1.70185e-05 1.92763e-07)
(0.637751 -0.00172411 0.0393015)
(0.645492 -0.000898763 0.00329072)
(0.627522 -0.000220925 0.00180602)
(0.62635 -0.000122439 0.000187122)
(0.625045 -4.76549e-05 5.22451e-05)
(0.62497 -2.59173e-05 4.23918e-06)
(0.624938 -1.26435e-05 5.9012e-07)
(0.624958 -6.4282e-06 2.00632e-08)
(0.637004 -0.00151535 0.0433377)
(0.644076 -0.000740658 0.00473666)
(0.627418 -0.000154033 0.0022873)
(0.626314 -8.76359e-05 0.000266616)
(0.62504 -3.23237e-05 7.41429e-05)
(0.624971 -1.78051e-05 6.73774e-06)
(0.62494 -8.60956e-06 1.12909e-06)
(0.624961 -4.3961e-06 4.5214e-08)
(0.624972 -2.15591e-06 -2.47751e-09)
(0.635504 -0.000907719 0.046764)
(0.642334 -0.000547869 0.00650341)
(0.627299 -7.97156e-05 0.00281311)
(0.626268 -5.35625e-05 0.00036762)
(0.625035 -1.7987e-05 9.94918e-05)
(0.624971 -1.02929e-05 9.9765e-06)
(0.624942 -4.90499e-06 1.71568e-06)
(0.624964 -2.54187e-06 1.1929e-07)
(0.624974 -1.22497e-06 -2.99121e-08)
(0.624981 -5.6467e-07 8.58385e-09)
(0.632668 -0.000213617 0.04927)
(0.640182 -0.000213529 0.00842003)
(0.627121 -1.96388e-05 0.003371)
(0.626203 -1.86483e-05 0.000490723)
(0.625029 -5.49444e-06 0.000128429)
(0.624971 -3.35866e-06 1.40099e-05)
(0.624943 -1.5664e-06 2.49676e-06)
(0.624965 -8.31939e-07 1.54876e-07)
(0.624976 -3.98929e-07 -3.24381e-09)
(0.624982 -1.78642e-07 5.25881e-09)
(0.624984 -1.29613e-07 -3.57126e-10)
(0.634517 -8.04591e-05 0.00208222)
(0.634734 -0.00016199 0.00653132)
(0.648543 -0.000632398 3.42177e-05)
(0.63523 -0.000281339 0.0114862)
(0.648424 -0.000720411 0.000142835)
(0.628068 -0.000400606 0.000109908)
(0.635956 -0.000448116 0.0170015)
(0.648227 -0.000805884 0.000367343)
(0.627986 -0.000399664 0.00035177)
(0.626489 -0.000249289 1.2472e-05)
(0.636836 -0.00068321 0.0228504)
(0.647913 -0.000885539 0.000737285)
(0.627898 -0.000387405 0.000637792)
(0.626459 -0.000233443 4.09728e-05)
(0.625082 -0.000112603 5.74416e-06)
(0.63772 -0.000957469 0.0287359)
(0.647423 -0.000943309 0.00131553)
(0.627803 -0.000362145 0.000977093)
(0.626429 -0.000211879 7.80902e-05)
(0.62507 -9.69208e-05 1.85037e-05)
(0.624975 -5.26938e-05 6.88965e-07)
(0.638405 -0.00129898 0.0344016)
(0.646698 -0.000980326 0.00217269)
(0.627706 -0.000326251 0.00136977)
(0.626399 -0.000185601 0.000126187)
(0.625061 -8.04706e-05 3.38031e-05)
(0.624973 -4.35301e-05 2.26635e-06)
(0.624938 -2.16817e-05 1.81817e-07)
(0.638511 -0.0015333 0.0395141)
(0.645653 -0.000956993 0.00333767)
(0.627601 -0.000277028 0.00181106)
(0.626365 -0.00015512 0.000188157)
(0.625052 -6.38621e-05 5.23602e-05)
(0.624973 -3.4549e-05 4.22629e-06)
(0.624939 -1.70359e-05 6.1975e-07)
(0.624959 -8.64113e-06 1.18893e-08)
(0.637818 -0.00168827 0.0438995)
(0.644256 -0.000894544 0.00483484)
(0.627488 -0.000220165 0.00229907)
(0.626325 -0.000122244 0.00026804)
(0.625045 -4.76478e-05 7.42416e-05)
(0.624972 -2.59415e-05 6.7875e-06)
(0.624941 -1.26569e-05 1.08892e-06)
(0.624962 -6.46072e-06 6.59538e-08)
(0.624972 -3.13943e-06 -1.00731e-08)
(0.635942 -0.00134523 0.0471631)
(0.642426 -0.000723635 0.00656823)
(0.627343 -0.000151841 0.00282322)
(0.626273 -8.74661e-05 0.000368201)
(0.625038 -3.22847e-05 9.97369e-05)
(0.624972 -1.78184e-05 9.95724e-06)
(0.624943 -8.61075e-06 1.75107e-06)
(0.624964 -4.4207e-06 9.17454e-08)
(0.624975 -2.15611e-06 -9.27546e-09)
(0.624981 -9.67229e-07 2.95068e-09)
(0.633029 -0.000677049 0.0496159)
(0.640219 -0.000510888 0.00851243)
(0.627154 -7.54138e-05 0.00338288)
(0.626205 -5.34938e-05 0.000491223)
(0.625031 -1.78837e-05 0.000128795)
(0.624971 -1.03015e-05 1.40029e-05)
(0.624944 -4.90513e-06 2.46113e-06)
(0.624966 -2.55262e-06 1.85003e-07)
(0.624977 -1.22492e-06 -4.40107e-08)
(0.624984 -5.76456e-07 2.86753e-08)
(0.624986 -2.64909e-07 -7.37586e-09)
(0.628859 -0.00013299 0.0509397)
(0.637597 -0.000189733 0.0104505)
(0.626878 -1.75402e-05 0.00395644)
(0.626113 -1.85636e-05 0.000634975)
(0.625021 -5.42448e-06 0.000161424)
(0.624969 -3.3627e-06 1.89651e-05)
(0.624944 -1.5673e-06 3.36679e-06)
(0.624967 -8.34732e-07 2.3755e-07)
(0.624979 -3.93625e-07 -4.62232e-09)
(0.624986 -1.89583e-07 1.35166e-08)
(0.624988 -1.12355e-07 -3.50463e-09)
(0.624987 5.36244e-09 -1.22582e-09)
(0.634592 -2.21792e-05 0.0020818)
(0.634853 -9.3306e-05 0.00652985)
(0.648591 -0.000547525 3.47485e-05)
(0.63541 -0.000198087 0.0114836)
(0.648488 -0.000633052 0.000145189)
(0.628145 -0.000390732 0.000109844)
(0.63622 -0.000351172 0.0169992)
(0.648311 -0.000722421 0.000373432)
(0.628072 -0.000400695 0.000351617)
(0.626522 -0.000259175 1.25798e-05)
(0.637204 -0.000556584 0.0228492)
(0.648015 -0.000810017 0.000749044)
(0.62799 -0.00039984 0.000637807)
(0.62649 -0.000249338 4.13229e-05)
(0.6251 -0.000126853 5.75444e-06)
(0.638219 -0.000822187 0.0287546)
(0.647548 -0.000892095 0.00133842)
(0.6279 -0.000387698 0.000977851)
(0.626457 -0.000233464 7.88544e-05)
(0.625085 -0.000112623 1.84785e-05)
(0.62498 -6.18813e-05 7.03219e-07)
(0.639011 -0.00110439 0.0344432)
(0.646837 -0.000951539 0.00220495)
(0.627802 -0.000362564 0.00137152)
(0.626422 -0.00021184 0.000127215)
(0.625073 -9.69404e-05 3.38705e-05)
(0.624978 -5.27462e-05 2.25943e-06)
(0.62494 -2.66251e-05 1.94288e-07)
(0.63925 -0.00140999 0.0396852)
(0.645819 -0.00098604 0.00339584)
(0.627694 -0.000326551 0.00181618)
(0.626384 -0.000185466 0.0001897)
(0.625062 -8.04864e-05 5.23682e-05)
(0.624976 -4.35734e-05 4.28562e-06)
(0.624941 -2.17158e-05 5.86292e-07)
(0.62496 -1.10456e-05 2.05896e-08)
(0.638512 -0.00156609 0.044146)
(0.644409 -0.000955862 0.00489618)
(0.627566 -0.000276854 0.00230554)
(0.626339 -0.000154893 0.000269422)
(0.625053 -6.38612e-05 7.43872e-05)
(0.624975 -3.4581e-05 6.7767e-06)
(0.624942 -1.70536e-05 1.13409e-06)
(0.624962 -8.69028e-06 4.1358e-08)
(0.624972 -4.25624e-06 -9.31213e-10)
(0.63662 -0.0015634 0.0476597)
(0.642581 -0.000874038 0.0066741)
(0.62741 -0.000218289 0.00283595)
(0.626283 -0.000121902 0.00036994)
(0.625043 -4.76249e-05 9.98806e-05)
(0.624973 -2.5957e-05 1.0011e-05)
(0.624943 -1.26684e-05 1.70524e-06)
(0.624964 -6.49239e-06 1.22672e-07)
(0.624975 -3.15118e-06 -3.39655e-08)
(0.624982 -1.44874e-06 1.01425e-08)
(0.633404 -0.00113768 0.0499188)
(0.640293 -0.000688627 0.00858256)
(0.627197 -0.00014825 0.00339219)
(0.62621 -8.71203e-05 0.000492087)
(0.625034 -3.22252e-05 0.000129051)
(0.624972 -1.78247e-05 1.399e-05)
(0.624944 -8.61232e-06 2.49362e-06)
(0.624966 -4.44157e-06 1.54522e-07)
(0.624978 -2.15676e-06 -1.55625e-08)
(0.624984 -9.88184e-07 1.10769e-08)
(0.624987 -4.74834e-07 -4.27206e-09)
(0.629133 -0.000502311 0.0511191)
(0.637616 -0.000465086 0.0105275)
(0.626908 -7.11234e-05 0.00396374)
(0.626114 -5.32072e-05 0.000635742)
(0.625023 -1.77638e-05 0.000161734)
(0.62497 -1.03085e-05 1.89524e-05)
(0.624944 -4.90521e-06 3.33976e-06)
(0.624968 -2.56073e-06 2.64634e-07)
(0.62498 -1.22574e-06 -5.06971e-08)
(0.624987 -5.87566e-07 4.74835e-08)
(0.624989 -2.56038e-07 -2.45644e-08)
(0.624989 -6.77713e-08 4.4253e-09)
(0.623919 -8.78706e-05 0.050995)
(0.63458 -0.000166084 0.0122642)
(0.626502 -1.61951e-05 0.00451467)
(0.625988 -1.83536e-05 0.000794976)
(0.625008 -5.36064e-06 0.000197582)
(0.624967 -3.36717e-06 2.48944e-05)
(0.624945 -1.56873e-06 4.37032e-06)
(0.624969 -8.35285e-07 3.42471e-07)
(0.624981 -3.92389e-07 -4.00344e-09)
(0.624989 -1.96471e-07 2.50155e-08)
(0.624991 -9.7704e-08 -6.32747e-09)
(0.624991 -9.76655e-09 -2.15201e-09)
(0.62499 -9.81051e-08 4.69062e-09)
(0.634638 2.66015e-05 0.00208143)
(0.634928 -3.38597e-05 0.00652855)
(0.648625 -0.00046764 3.50946e-05)
(0.635528 -0.000126029 0.0114811)
(0.648537 -0.000548123 0.00014685)
(0.628211 -0.000372022 0.000109759)
(0.636399 -0.000261003 0.0169954)
(0.648375 -0.000634915 0.000377614)
(0.628148 -0.000390829 0.00035143)
(0.626556 -0.000262829 1.26552e-05)
(0.637465 -0.000448038 0.0228464)
(0.648098 -0.000726258 0.000758269)
(0.628076 -0.000400866 0.000637618)
(0.626523 -0.000259235 4.16607e-05)
(0.625119 -0.000138973 5.74041e-06)
(0.638579 -0.000680378 0.0287546)
(0.64765 -0.000816207 0.00135489)
(0.627993 -0.000400138 0.000978022)
(0.626488 -0.000249371 7.94779e-05)
(0.625102 -0.000126867 1.8511e-05)
(0.624987 -7.07308e-05 7.00217e-07)
(0.639493 -0.000952363 0.0344695)
(0.646962 -0.00089966 0.00223513)
(0.627899 -0.000388125 0.00137282)
(0.62645 -0.00023344 0.000128356)
(0.625088 -0.000112645 3.38353e-05)
(0.624983 -6.19352e-05 2.30317e-06)
(0.624943 -3.17001e-05 1.82589e-07)
(0.639828 -0.00121398 0.0397453)
(0.645958 -0.000957746 0.00343777)
(0.627789 -0.00036303 0.00181883)
(0.626408 -0.000211723 0.000191122)
(0.625075 -9.69557e-05 5.24629e-05)
(0.62498 -5.27965e-05 4.27686e-06)
(0.624943 -2.66652e-05 6.24675e-07)
(0.624961 -1.35832e-05 1.18466e-08)
(0.639191 -0.00145789 0.044343)
(0.644569 -0.000984358 0.00496673)
(0.627657 -0.000326552 0.00231212)
(0.626358 -0.000185213 0.000271395)
(0.625062 -8.04925e-05 7.4423e-05)
(0.624978 -4.3608e-05 6.8546e-06)
(0.624944 -2.17496e-05 1.08252e-06)
(0.624963 -1.11052e-05 6.80736e-08)
(0.624973 -5.43284e-06 -1.03272e-08)
(0.637238 -0.00152354 0.0479223)
(0.642724 -0.000941442 0.0067494)
(0.627487 -0.000275831 0.00284377)
(0.626297 -0.000154502 0.000371713)
(0.625051 -6.38474e-05 0.000100051)
(0.624976 -3.46012e-05 1.0008e-05)
(0.624944 -1.70689e-05 1.75821e-06)
(0.624965 -8.73809e-06 8.49134e-08)
(0.624975 -4.26627e-06 -4.42366e-09)
(0.624982 -1.94758e-06 2.68434e-09)
(0.633956 -0.00139012 0.0503269)
(0.640422 -0.000836935 0.00869058)
(0.627261 -0.000214996 0.00340497)
(0.62622 -0.00012134 0.000494142)
(0.625039 -4.75833e-05 0.000129233)
(0.624973 -2.59632e-05 1.40422e-05)
(0.624945 -1.26768e-05 2.45054e-06)
(0.624967 -6.51978e-06 1.89708e-07)
(0.624978 -3.16257e-06 -5.11841e-08)
(0.624984 -1.46938e-06 3.4092e-08)
(0.624987 -6.34731e-07 -9.59426e-09)
(0.629444 -0.00093858 0.0513369)
(0.637674 -0.000640236 0.0105986)
(0.626948 -0.000143584 0.00397159)
(0.626119 -8.65149e-05 0.000636914)
(0.625026 -3.21458e-05 0.000161975)
(0.624971 -1.78249e-05 1.89471e-05)
(0.624945 -8.61388e-06 3.3648e-06)
(0.624968 -4.45732e-06 2.36773e-07)
(0.62498 -2.15785e-06 -2.07049e-08)
(0.624987 -1.00814e-06 2.3295e-08)
(0.62499 -4.61495e-07 -1.46169e-08)
(0.62499 -8.79598e-08 2.95373e-10)
(0.624126 -0.000383751 0.0510794)
(0.634588 -0.00041621 0.0123272)
(0.626529 -6.76218e-05 0.00451802)
(0.625989 -5.26504e-05 0.000795947)
(0.62501 -1.76463e-05 0.000197791)
(0.624967 -1.03142e-05 2.48795e-05)
(0.624945 -4.90493e-06 4.35205e-06)
(0.624969 -2.56629e-06 3.62539e-07)
(0.624981 -1.22739e-06 -4.72501e-08)
(0.624989 -5.96414e-07 6.33334e-08)
(0.624992 -2.47745e-07 -3.542e-08)
(0.624992 -8.20972e-08 1.47096e-08)
(0.624992 -3.06493e-08 5.76188e-09)
(0.618337 -6.59456e-05 0.0494251)
(0.631263 -0.00014436 0.0136412)
(0.625978 -1.57467e-05 0.00499409)
(0.625822 -1.80313e-05 0.000960706)
(0.624989 -5.31814e-06 0.000235674)
(0.624963 -3.37185e-06 3.17483e-05)
(0.624944 -1.56967e-06 5.50472e-06)
(0.624969 -8.34844e-07 4.71939e-07)
(0.624982 -3.93882e-07 5.40646e-10)
(0.624991 -1.99375e-07 3.85783e-08)
(0.624994 -8.79202e-08 -1.08927e-08)
(0.624994 -2.26866e-08 7.30984e-10)
(0.624993 -7.85368e-08 1.38429e-08)
(0.624991 7.59858e-08 -3.49307e-09)
(0.634665 6.68434e-05 0.00208115)
(0.634974 1.59296e-05 0.00652744)
(0.648648 -0.000394712 3.53334e-05)
(0.635604 -6.37162e-05 0.0114789)
(0.648571 -0.000468183 0.00014794)
(0.628266 -0.000346327 0.00010969)
(0.636517 -0.000183108 0.0169918)
(0.648423 -0.000549845 0.000380546)
(0.628215 -0.000372117 0.000351179)
(0.626589 -0.00026044 1.27239e-05)
(0.637642 -0.000348318 0.0228413)
(0.648163 -0.000638493 0.000764588)
(0.628152 -0.000391004 0.000637347)
(0.626556 -0.000262893 4.19007e-05)
(0.625139 -0.000148339 5.74644e-06)
(0.638835 -0.000558749 0.0287513)
(0.647733 -0.000732062 0.00136772)
(0.628078 -0.000401155 0.000977865)
(0.626521 -0.000259283 8.00765e-05)
(0.625122 -0.000138985 1.84695e-05)
(0.624995 -7.89139e-05 7.1478e-07)
(0.639843 -0.000797363 0.0344718)
(0.647064 -0.000823574 0.00225701)
(0.627991 -0.000400582 0.00137327)
(0.626481 -0.000249366 0.000129298)
(0.625105 -0.000126883 3.38921e-05)
(0.62499 -7.07899e-05 2.29487e-06)
(0.624946 -3.68551e-05 1.97897e-07)
(0.640289 -0.00105238 0.0397812)
(0.646082 -0.000905812 0.00347601)
(0.627885 -0.000388632 0.00182087)
(0.626436 -0.000233345 0.000192679)
(0.625089 -0.000112662 5.24292e-05)
(0.624986 -6.19868e-05 4.34972e-06)
(0.624946 -3.17559e-05 5.88465e-07)
(0.624962 -1.62729e-05 2.28259e-08)
(0.639733 -0.00127547 0.0444243)
(0.644706 -0.000958312 0.00501929)
(0.627751 -0.000363337 0.00231589)
(0.626382 -0.000211495 0.000273253)
(0.625075 -9.69634e-05 7.45431e-05)
(0.624982 -5.28369e-05 6.85053e-06)
(0.624946 -2.67053e-05 1.14314e-06)
(0.624964 -1.36612e-05 4.0967e-08)
(0.624973 -6.7397e-06 4.21075e-10)
(0.637847 -0.00144759 0.0481363)
(0.642877 -0.000971875 0.00683154)
(0.627576 -0.00032588 0.0028518)
(0.626316 -0.000184787 0.000374131)
(0.62506 -8.0486e-05 0.000100127)
(0.624979 -4.363e-05 1.00987e-05)
(0.624946 -2.17782e-05 1.69691e-06)
(0.624966 -1.11636e-05 1.26262e-07)
(0.624976 -5.45121e-06 -3.53898e-08)
(0.624982 -2.52444e-06 1.13996e-08)
(0.634491 -0.00142802 0.050586)
(0.640553 -0.00091237 0.00877717)
(0.627335 -0.000273582 0.0034139)
(0.626234 -0.000153875 0.000496339)
(0.625046 -6.38177e-05 0.000129422)
(0.624976 -3.46088e-05 1.40523e-05)
(0.624946 -1.70806e-05 2.50243e-06)
(0.624967 -8.77898e-06 1.45152e-07)
(0.624978 -4.27644e-06 -7.82828e-09)
(0.624985 -1.97731e-06 9.95371e-09)
(0.624987 -8.7588e-07 -4.53679e-09)
(0.629884 -0.00120609 0.051654)
(0.63778 -0.000786409 0.0107036)
(0.627008 -0.000210361 0.00398355)
(0.626128 -0.000120477 0.000639268)
(0.625031 -4.75217e-05 0.000162178)
(0.624972 -2.59609e-05 1.8995e-05)
(0.624946 -1.26821e-05 3.3313e-06)
(0.624968 -6.54109e-06 2.69727e-07)
(0.62498 -3.17217e-06 -6.05552e-08)
(0.624987 -1.48949e-06 5.68252e-08)
(0.62499 -6.33906e-07 -3.18901e-08)
(0.62499 -1.6318e-07 4.56555e-09)
(0.624374 -0.000771456 0.0512309)
(0.634633 -0.000584486 0.0123954)
(0.626566 -0.000138499 0.00452414)
(0.625993 -8.55918e-05 0.000797404)
(0.625013 -3.20531e-05 0.000197992)
(0.624968 -1.78204e-05 2.48815e-05)
(0.624945 -8.61514e-06 4.36855e-06)
(0.624969 -4.46785e-06 3.41344e-07)
(0.624982 -2.15929e-06 -2.25648e-08)
(0.624989 -1.02477e-06 3.8034e-08)
(0.624992 -4.48945e-07 -2.37443e-08)
(0.624993 -1.15843e-07 2.20863e-09)
(0.624992 -7.27852e-08 8.47351e-10)
(0.61849 -0.000308311 0.049461)
(0.631267 -0.000368605 0.0136923)
(0.626001 -6.53275e-05 0.00499463)
(0.625823 -5.18301e-05 0.00096178)
(0.624991 -1.75555e-05 0.000235763)
(0.624964 -1.03184e-05 3.17345e-05)
(0.624945 -4.90419e-06 5.4927e-06)
(0.624969 -2.56994e-06 4.84384e-07)
(0.624982 -1.22965e-06 -3.48664e-08)
(0.624991 -6.02284e-07 7.44051e-08)
(0.624995 -2.4187e-07 -4.4073e-08)
(0.624995 -9.56563e-08 2.42678e-08)
(0.624995 -2.69894e-08 1.52353e-08)
(0.624993 2.08738e-08 -3.84298e-09)
(0.61265 -5.66334e-05 0.046398)
(0.627838 -0.000125419 0.0144159)
(0.625311 -1.60518e-05 0.00533804)
(0.625614 -1.76345e-05 0.00111737)
(0.624961 -5.30875e-06 0.000273526)
(0.624958 -3.37635e-06 3.93179e-05)
(0.624944 -1.57002e-06 6.75249e-06)
(0.624969 -8.34504e-07 6.26965e-07)
(0.624983 -3.96304e-07 1.06662e-08)
(0.624992 -1.99378e-07 5.27577e-08)
(0.624996 -8.27302e-08 -1.62983e-08)
(0.624997 -3.16197e-08 6.61289e-09)
(0.624996 -6.10125e-08 2.77845e-08)
(0.624994 5.65235e-08 -8.93232e-09)
(0.624993 -1.33309e-07 1.16713e-08)
(-1.20377e-06 -1.42213e-05 1.28302e-06)
(0.634678 9.92833e-05 0.00208091)
(0.635 5.70378e-05 0.00652655)
(0.648661 -0.000329443 3.54847e-05)
(0.635649 -1.14654e-05 0.0114769)
(0.648593 -0.000395203 0.000148675)
(0.628311 -0.00031588 0.000109609)
(0.636592 -0.000115849 0.0169883)
(0.648457 -0.000469768 0.000382451)
(0.62827 -0.000346417 0.000350966)
(0.626621 -0.000252479 1.27636e-05)
(0.637758 -0.000262349 0.022836)
(0.648211 -0.00055317 0.000768996)
(0.628218 -0.000372285 0.000636949)
(0.62659 -0.000260508 4.21152e-05)
(0.625161 -0.000154503 5.73158e-06)
(0.639009 -0.000448201 0.0287444)
(0.647798 -0.000643958 0.00137651)
(0.628155 -0.00039129 0.000977545)
(0.626555 -0.00026295 8.05044e-05)
(0.625142 -0.000148358 1.849e-05)
(0.625005 -8.60776e-05 7.123e-07)
(0.640093 -0.000663766 0.0344681)
(0.647148 -0.000739129 0.00227393)
(0.628076 -0.000401588 0.00137325)
(0.626514 -0.000259299 0.000130193)
(0.625124 -0.000138998 3.38277e-05)
(0.624998 -7.898e-05 2.34118e-06)
(0.62495 -4.18819e-05 1.8672e-07)
(0.640627 -0.000889227 0.039787)
(0.646184 -0.000830118 0.00350397)
(0.627977 -0.000401139 0.00182178)
(0.626466 -0.000249301 0.000193981)
(0.625106 -0.000126897 5.25083e-05)
(0.624993 -7.08464e-05 4.33858e-06)
(0.624949 -3.69134e-05 6.3531e-07)
(0.624963 -1.9026e-05 1.39233e-08)
(0.64017 -0.00111379 0.0444721)
(0.644829 -0.0009076 0.00506611)
(0.627847 -0.00038906 0.00231887)
(0.626409 -0.000233149 0.000275251)
(0.625089 -0.000112673 7.45255e-05)
(0.624988 -6.20286e-05 6.94862e-06)
(0.624948 -3.18116e-05 1.08617e-06)
(0.624965 -1.63596e-05 7.47314e-08)
(0.624974 -8.08494e-06 -1.10907e-08)
(0.638347 -0.00129236 0.0482394)
(0.64301 -0.000950434 0.00689497)
(0.627669 -0.000363174 0.00285685)
(0.62634 -0.000211106 0.00037646)
(0.625073 -9.69611e-05 0.000100269)
(0.624983 -5.2863e-05 1.01061e-05)
(0.624948 -2.67391e-05 1.77165e-06)
(0.624967 -1.37376e-05 8.36932e-08)
(0.624976 -6.75344e-06 -7.34185e-11)
(0.624982 -3.11875e-06 2.26793e-09)
(0.635023 -0.00139368 0.0508053)
(0.640695 -0.000947347 0.0088687)
(0.627422 -0.00032418 0.00342323)
(0.626253 -0.000184122 0.000499207)
(0.625056 -8.04641e-05 0.000129543)
(0.624979 -4.3638e-05 1.41486e-05)
(0.624947 -2.1799e-05 2.44173e-06)
(0.624968 -1.12137e-05 1.94674e-07)
(0.624979 -5.46929e-06 -5.39099e-08)
(0.624985 -2.55323e-06 3.8183e-08)
(0.624987 -1.06688e-06 -1.11634e-08)
(0.630334 -0.00130436 0.0518932)
(0.637897 -0.000870081 0.010797)
(0.627079 -0.000269963 0.00399318)
(0.626142 -0.000152931 0.000641892)
(0.625038 -6.37693e-05 0.000162378)
(0.624974 -3.46046e-05 1.902e-05)
(0.624947 -1.70885e-05 3.3743e-06)
(0.624969 -8.80996e-06 2.25707e-07)
(0.62498 -4.28542e-06 -1.09307e-08)
(0.624987 -2.00601e-06 2.13947e-08)
(0.62499 -8.72802e-07 -1.52351e-08)
(0.62499 -1.95748e-07 -9.24181e-10)
(0.62472 -0.00103613 0.0514684)
(0.634718 -0.000727415 0.0124931)
(0.626621 -0.000204798 0.00453467)
(0.626002 -0.000119258 0.000800008)
(0.625018 -4.74422e-05 0.000198193)
(0.62497 -2.59514e-05 2.49243e-05)
(0.624946 -1.26847e-05 4.34692e-06)
(0.624969 -6.55605e-06 3.66886e-07)
(0.624982 -3.17915e-06 -5.84454e-08)
(0.62499 -1.50688e-06 7.60818e-08)
(0.624993 -6.32823e-07 -4.71722e-08)
(0.624993 -1.94783e-07 1.6055e-08)
(0.624993 -2.01736e-08 6.74944e-09)
(0.618684 -0.000641842 0.0495652)
(0.631302 -0.000527068 0.0137546)
(0.626035 -0.000133636 0.00499909)
(0.625827 -8.43439e-05 0.000963448)
(0.624994 -3.19599e-05 0.000235904)
(0.624964 -1.78123e-05 3.1742e-05)
(0.624945 -8.61572e-06 5.50177e-06)
(0.624969 -4.47423e-06 4.70604e-07)
(0.624982 -2.16094e-06 -1.91264e-08)
(0.624991 -1.03676e-06 5.38576e-08)
(0.624995 -4.39343e-07 -3.3227e-08)
(0.624995 -1.42366e-07 8.11104e-09)
(0.624995 -6.84964e-08 2.77292e-09)
(0.624993 6.29223e-08 5.02557e-11)
(0.612762 -0.000261358 0.0464118)
(0.62784 -0.000325189 0.0144571)
(0.625331 -6.42158e-05 0.0053369)
(0.625615 -5.0809e-05 0.00111844)
(0.624963 -1.75127e-05 0.000273499)
(0.624958 -1.03209e-05 3.93062e-05)
(0.624944 -4.90335e-06 6.74299e-06)
(0.624969 -2.57247e-06 6.33184e-07)
(0.624983 -1.23212e-06 -1.54721e-08)
(0.624992 -6.05237e-07 8.18384e-08)
(0.624996 -2.38842e-07 -4.7011e-08)
(0.624997 -1.06936e-07 3.32739e-08)
(0.624997 -2.39922e-08 3.48123e-08)
(0.624996 7.22296e-09 -8.30394e-09)
(0.624994 -2.59964e-08 1.81746e-08)
(0.607327 -5.31588e-05 0.0422326)
(0.624514 -0.00010955 0.0145162)
(0.624534 -1.68226e-05 0.00549804)
(0.625368 -1.72113e-05 0.0012472)
(0.624924 -5.33746e-06 0.000307976)
(0.624951 -3.38064e-06 4.71862e-05)
(0.624943 -1.57026e-06 8.07227e-06)
(0.624969 -8.34693e-07 8.06921e-07)
(0.624983 -3.98521e-07 2.63961e-08)
(0.624992 -1.98079e-07 6.59397e-08)
(0.624997 -8.12084e-08 -2.1405e-08)
(0.624999 -3.66949e-08 1.4464e-08)
(0.624999 -4.74231e-08 4.29769e-08)
(0.624997 3.89806e-08 -1.48309e-08)
(0.624996 -1.06401e-07 3.63227e-08)
(0.624993 1.21877e-07 -6.20016e-09)
(-4.24591e-06 -2.05288e-05 2.33898e-06)
(-1.20112e-06 -1.29099e-05 1.60123e-06)
(-9.55929e-07 -1.06817e-05 1.4508e-06)
(0.634684 0.000124944 0.00208074)
(0.635014 9.02335e-05 0.00652582)
(0.648666 -0.000272007 3.55946e-05)
(0.635676 3.17577e-05 0.0114754)
(0.648606 -0.000329885 0.000149148)
(0.628347 -0.000282679 0.000109553)
(0.636637 -5.93618e-05 0.0169853)
(0.64848 -0.000396662 0.000383724)
(0.628315 -0.000315957 0.000350721)
(0.62665 -0.000239692 1.28016e-05)
(0.637832 -0.000188248 0.0228309)
(0.648245 -0.000472852 0.000771838)