/*--------------------------------*- C++ -*----------------------------------*\
  =========                 |
  \\      /  F ield         | OpenFOAM: The Open Source CFD Toolbox
   \\    /   O peration     | Website:  https://openfoam.org
    \\  /    A nd           | Version:  7
     \\/     M anipulation  |
\*---------------------------------------------------------------------------*/
FoamFile
{
    version     2.0;
    format      ascii;
    class       volScalarField;
    location    "100";
    object      p;
}
// * * * * * * * * * * * * * * * * * * * * * * * * * * * * * * * * * * * * * //

dimensions      [0 2 -2 0 0 0 0];

internalField   nonuniform List<scalar> 
43144
(
20.1105
20.1105
20.1106
15.482
20.1104
20.1106
15.4816
20.1107
15.482
11.1606
20.1103
20.1105
15.4811
20.1107
15.4816
11.1596
20.111
15.482
11.1622
7.96405
20.11
20.1103
15.4803
20.1106
15.4811
11.158
20.111
15.4817
11.1611
7.9597
20.1115
15.4823
11.1649
7.96115
0.284033
20.1097
20.1101
15.4793
20.1105
15.4803
11.1562
20.1109
15.4812
11.1596
7.95599
20.1115
15.4819
11.164
7.957
0.118644
20.1124
15.4829
11.1701
7.95867
0.517483
0.0231349
0.513069
20.1092
20.1097
15.478
20.1102
15.4793
11.1543
20.1108
15.4804
11.1578
7.95063
20.1114
15.4814
11.1625
7.95327
0.0306625
20.1124
15.4825
11.1693
7.95466
0.36923
-0.124431
0.416062
20.1137
15.484
11.179
7.95731
0.78509
0.617734
-0.00294555
0.414197
0.134756
20.1086
20.1093
15.4766
20.1099
15.478
11.1522
20.1105
15.4793
11.1559
7.94499
20.1113
15.4806
11.1607
7.9479
-0.0175323
20.1123
15.482
11.1679
7.95091
0.28917
-0.21505
0.363938
20.1137
15.4836
11.1783
7.95334
0.659967
0.527627
-0.0968366
0.339914
0.0715911
20.1158
15.4861
11.1929
7.95828
1.10033
0.746521
0.187958
0.012675
0.338851
0.0873024
0.101484
20.1079
20.1087
15.475
20.1094
15.4766
11.1501
20.1102
15.4781
11.1538
7.93906
20.1111
15.4796
11.1588
7.94224
-0.047303
20.1122
15.4812
11.1662
7.94553
0.242122
-0.262675
0.335915
20.1137
15.4831
11.177
7.94953
0.58815
0.479569
-0.159493
0.288137
0.0343973
20.1158
15.4857
11.1925
7.95428
0.999051
0.668884
0.12832
-0.0474348
0.308517
0.0383516
0.0665122
20.1188
15.4896
11.2137
7.96382
1.47425
0.898566
0.255668
0.129325
0.0160451
0.263585
0.0580223
0.0758558
0.035323
20.1071
20.108
15.4733
20.1088
15.475
11.148
20.1097
15.4766
11.1517
7.93329
20.1107
15.4783
11.1568
7.9363
-0.0667866
20.1119
15.4801
11.1642
7.93986
0.212808
-0.292035
0.316157
20.1135
15.4823
11.1753
7.94414
0.542834
0.451533
-0.202312
0.260761
0.0139381
20.1157
15.4851
11.1913
7.95041
0.935982
0.625127
0.0937651
-0.0823028
0.281248
0.00165396
0.0467715
20.1188
15.4892
11.2135
7.95978
1.39659
0.834148
0.203508
0.0958997
-0.0301808
0.256914
0.0334011
0.0493603
0.017786
20.1229
15.4954
11.2433
7.9772
1.90661
1.0815
0.337845
0.164693
0.0490662
0.220706
0.0164443
0.0320731
0.0576224
0.022637
0.0220487
20.1062
20.1072
15.4716
20.1081
15.4733
11.1459
20.1091
15.4751
11.1496
7.92786
20.1102
15.4769
11.1547
7.93053
-0.0798618
20.1116
15.4789
11.1622
7.93391
0.193539
-0.311204
0.300886
20.1133
15.4812
11.1734
7.93846
0.514231
0.431732
-0.230976
0.241229
0.000482356
20.1156
15.4843
11.1897
7.94502
0.893246
0.597293
0.0733526
-0.114892
0.257875
-0.0183607
0.0360697
20.1187
15.4887
11.2125
7.95586
1.34301
0.794906
0.171844
0.0774986
-0.0539174
0.252266
0.0113558
0.0301523
0.00789205
20.1229
15.495
11.2433
7.97314
1.85087
1.03038
0.293891
0.135234
0.0321379
0.215668
-0.0191576
0.0211017
0.044076
0.00962636
0.0140274
20.1284
15.504
11.2832
8.00249
2.39071
1.29987
0.440043
0.207576
0.0665717
0.0282441
0.0187056
0.198098
0.0101981
0.0421888
0.0132697
0.0162867
0.00868336
20.1052
20.1063
15.4699
20.1073
15.4716
11.1439
20.1084
15.4734
11.1475
7.92294
20.1097
15.4753
11.1526
7.9251
-0.0889093
20.1111
15.4774
11.1601
7.92814
0.180596
-0.324047
0.288874
20.113
15.48
11.1714
7.93251
0.495285
0.416468
-0.250216
0.226043
-0.00896407
20.1154
15.4833
11.1879
7.93932
0.865708
0.577548
0.0597933
-0.138866
0.238719
-0.0316137
0.0293409
20.1186
15.4879
11.211
7.95049
1.30391
0.767717
0.151615
0.0667662
-0.0817379
0.237399
-0.00590825
0.0197527
0.00255391
20.1229
15.4944
11.2424
7.9692
1.80719
0.996048
0.265287
0.118306
0.0229004
0.215336
-0.0400326
0.0114937
0.0329051
8.06537e-05
0.00956459
20.1284
15.5036
11.2834
7.9985
2.35361
1.2613
0.404626
0.18253
0.051561
0.0204533
0.0113512
0.191431
-0.0132571
0.0365351
0.00663907
0.0104113
0.00538622
20.1352
15.5162
11.3344
8.04406
2.91362
1.55612
0.566615
0.260987
0.0878105
0.0361303
0.0112327
0.0344416
0.0135078
0.166144
-0.00190809
0.00532971
0.0118733
0.00631122
0.00549563
20.1042
20.1053
15.4682
20.1064
15.4698
11.1419
20.1076
15.4717
11.1455
7.91858
20.109
15.4736
11.1505
7.92018
-0.0952986
20.1105
15.4759
11.158
7.9227
0.171632
-0.332909
0.279469
20.1125
15.4786
11.1694
7.92673
0.482522
0.404489
-0.263283
0.214077
-0.0157193
20.115
15.4821
11.1859
7.93338
0.847244
0.562332
0.0502392
-0.156023
0.223302
-0.0409379
0.0246167
20.1184
15.4869
11.2093
7.9448
1.27794
0.748191
0.137997
0.0599312
-0.101167
0.221778
-0.0188228
0.0131261
-0.00064581
20.1227
15.4937
11.2411
7.96391
1.77279
0.970093
0.245525
0.107592
0.0175469
0.203719
-0.0654422
-0.000984142
0.0241107
-0.0050823
0.00715427
20.1283
15.5031
11.2827
7.99462
2.31972
1.23213
0.379416
0.16713
0.0430543
0.0162819
0.00474864
0.189627
-0.0300079
0.0318876
0.00105221
0.00613257
0.00356798
20.1352
15.5158
11.3347
8.04027
2.89093
1.52841
0.539553
0.240583
0.0749613
0.0291954
0.00801892
0.0316221
0.00797933
0.161626
-0.0133042
0.00271264
0.00889086
0.00391552
0.00424155
15.5322
11.3969
8.10549
3.45682
1.85042
0.72096
0.32741
0.114327
0.0456879
0.01448
0.0064596
0.00135588
0.0307549
0.00745433
0.116435
-0.0117401
0.00817014
0.00447442
0.00459661
0.00305585
20.1032
20.1043
15.4666
20.1055
15.4681
11.1401
20.1067
15.4699
11.1436
7.91482
20.1082
15.4719
11.1484
7.91583
-0.099895
20.1098
15.4742
11.1559
7.91778
0.165298
-0.339148
0.27225
20.1119
15.477
11.1673
7.9213
0.473667
0.39511
-0.272391
0.204715
-0.0205333
20.1146
15.4807
11.1839
7.9276
0.834734
0.550414
0.0433969
-0.168071
0.211089
-0.0475986
0.0211276
20.118
15.4857
11.2074
7.93887
1.26021
0.733089
0.128338
0.0551074
-0.115505
0.207732
-0.0282786
0.0084552
-0.00268405
20.1225
15.4927
11.2395
7.95826
1.74895
0.951024
0.231953
0.100646
0.014291
0.19151
-0.0827113
-0.0119673
0.0176139
-0.0082262
0.0057403
20.1282
15.5023
11.2816
7.98947
2.29081
1.20807
0.360521
0.156569
0.0377081
0.0138628
-0.00617594
0.178985
-0.0508771
0.0257846
-0.00325502
0.00381208
0.00258884
20.1352
15.5153
11.3342
8.03653
2.86608
1.50446
0.518006
0.226879
0.067201
0.0253505
0.00631879
0.0288986
0.00154113
0.161017
-0.0230558
0.000114982
0.00639732
0.0021762
0.00354704
15.5318
11.3972
8.10204
3.44421
1.83138
0.701395
0.311622
0.103776
0.0397248
0.0116133
0.00523521
0.000361222
0.0291675
0.00494299
0.116274
-0.0142103
0.00704755
0.00326283
0.00368823
0.00259721
15.5517
11.4688
8.18829
3.99873
2.17964
0.905257
0.408976
0.14744
0.0576153
0.0184148
0.00768696
0.00340564
0.00633983
-0.000345295
0.0260683
-0.000493126
0.0595962
-0.0142237
0.00292366
0.00389503
0.00273026
0.00347481
20.1022
20.1033
15.465
20.1045
15.4665
11.1385
20.1058
15.4682
11.1418
7.9116
20.1073
15.4702
11.1465
7.91206
-0.103222
20.109
15.4725
11.1539
7.91343
0.160735
-0.343617
0.266799
20.1112
15.4753
11.1652
7.91637
0.467399
0.387904
-0.278865
0.197538
-0.0239003
20.114
15.4791
11.1818
7.92217
0.82602
0.541082
0.0385079
-0.176655
0.201536
-0.0523311
0.0184775
20.1176
15.4843
11.2054
7.93311
1.24808
0.721263
0.121402
0.0515433
-0.12586
0.196148
-0.0350994
0.00500427
-0.00396957
20.1222
15.4914
11.2377
7.95239
1.73226
0.936142
0.222221
0.0957041
0.0121937
0.179505
-0.0955591
-0.020699
0.0127732
-0.0102383
0.00486079
20.128
15.5014
11.2801
7.98394
2.26967
1.18977
0.347156
0.149553
0.0343884
0.0124225
-0.0155846
0.168357
-0.0660402
0.0203517
-0.0062952
0.00242551
0.0020112
20.1351
15.5146
11.3333
8.03163
2.84302
1.4829
0.500439
0.216671
0.0619236
0.0229326
0.00533537
0.0238257
-0.0087752
0.152797
-0.0361652
-0.0029086
0.00448511
0.00123511
0.00316628
15.5313
11.3968
8.09856
3.42707
1.8124
0.683624
0.299764
0.0968406
0.0362085
0.0100457
0.00458532
-0.00120479
0.0267546
0.000523984
0.119579
-0.0174433
0.00587191
0.00224677
0.00302533
0.00233864
15.5513
11.4691
8.18529
3.99248
2.167
0.891843
0.397393
0.139211
0.0526909
0.0159442
0.00659345
0.00295764
0.00598188
-0.000657478
0.0258859
0.000456236
0.0617879
-0.0135701
0.00247623
0.00343656
0.00239812
0.00330571
15.5737
11.5469
8.29081
4.5182
2.53656
1.11953
0.507381
0.188325
0.0725121
0.0233261
0.00917376
0.00385118
0.00360005
0.00214427
0.00552335
-0.00214779
0.0194029
-0.00655032
0.0157111
-0.0114272
0.00330791
0.00247743
0.0033583
0.00462816
20.1013
20.1023
15.4636
20.1034
15.465
11.137
20.1048
15.4666
11.1401
7.9089
20.1063
15.4685
11.1447
7.90885
-0.105623
20.1081
15.4707
11.152
7.90966
0.157425
-0.346833
0.262754
20.1104
15.4736
11.1632
7.91202
0.462876
0.382453
-0.283544
0.19213
-0.026208
20.1133
15.4774
11.1797
7.91726
0.819833
0.5339
0.0350753
-0.182857
0.194216
-0.055628
0.0164694
20.117
15.4827
11.2033
7.9277
1.23957
0.711995
0.116427
0.0488344
-0.133482
0.186932
-0.0399593
0.00238951
-0.00473167
20.1217
15.4901
11.2357
7.94667
1.72067
0.924461
0.215194
0.0920478
0.0108576
0.16913
-0.104997
-0.0272114
0.00913918
-0.0115058
0.00432337
20.1277
15.5002
11.2784
7.97818
2.25437
1.17526
0.337408
0.144499
0.0322163
0.0115149
-0.0232618
0.15749
-0.0776119
0.0158494
-0.00838286
0.00155775
0.0016434
20.1348
15.5136
11.3319
8.02631
2.82501
1.46573
0.487502
0.209652
0.0585564
0.0214607
0.00474727
0.0192289
-0.0173581
0.143557
-0.047513
-0.00543549
0.00315948
0.000668644
0.00293776
15.5306
11.396
8.09402
3.40965
1.79382
0.667839
0.290148
0.0917279
0.0338177
0.00906179
0.00420316
-0.00368352
0.0220709
-0.00777321
0.116107
-0.0225544
0.00454789
0.00147283
0.00265999
0.00219241
15.5509
11.4688
8.18217
3.98134
2.1525
0.877755
0.38746
0.133178
0.049536
0.0145086
0.00599386
0.00271559
0.00531875
-0.00189667
0.024459
-3.21936e-05
0.0661596
-0.0139419
0.00198615
0.00304913
0.00215165
0.00320437
15.5734
11.5471
8.28832
4.51555
2.52834
1.11075
0.499295
0.182246
0.0686467
0.0212801
0.00822982
0.00345086
0.00343491
0.00200749
0.00546477
-0.00189668
0.0206231
-0.00367415
0.0180496
-0.010805
0.00314117
0.00231009
0.0032354
0.00455796
11.6269
8.40789
4.99763
2.90981
1.36082
0.623411
0.237994
0.0909213
0.0294632
0.0110292
0.00439087
0.00375946
0.00467565
0.00301579
0.00180423
0.00462547
-0.00435867
0.0124723
-0.00717996
-0.00196054
-0.00562936
0.00226544
0.00326903
0.00458435
0.00668893
20.1004
20.1013
15.4624
20.1024
15.4636
11.1356
20.1037
15.4651
11.1386
7.90666
20.1053
15.4668
11.143
7.90615
-0.107331
20.1072
15.469
11.1502
7.90645
0.15503
-0.349135
0.259797
20.1095
15.4719
11.1612
7.90825
0.459586
0.378401
-0.286943
0.188126
-0.027743
20.1125
15.4757
11.1777
7.91291
0.815354
0.528458
0.0327106
-0.1874
0.188696
-0.0578758
0.0149643
20.1163
15.481
11.2013
7.9228
1.23349
0.704848
0.112916
0.0467787
-0.139132
0.179817
-0.0433554
0.00041393
-0.00510222
20.1212
15.4885
11.2337
7.9413
1.71245
0.915285
0.210127
0.0892658
0.0100513
0.160605
-0.112102
-0.0319213
0.00638377
-0.0122506
0.00402129
20.1272
15.4988
11.2765
7.97256
2.24349
1.16381
0.330308
0.140746
0.0308144
0.0109533
-0.02909
0.147819
-0.0863192
0.012301
-0.00975185
0.00102708
0.00140716
20.1345
15.5125
11.3303
8.02075
2.8114
1.45183
0.47784
0.204505
0.0563091
0.0205161
0.00436877
0.0152387
-0.0243555
0.133599
-0.057012
-0.00736348
0.00226344
0.000305499
0.00278927
15.5297
11.3948
8.08901
3.39497
1.77818
0.655603
0.28323
0.0883433
0.0323201
0.00846075
0.00397087
-0.00586277
0.0178628
-0.0152718
0.109344
-0.0281554
0.00346614
0.000933915
0.00243628
0.0021019
15.5502
11.4681
8.17809
3.96886
2.13712
0.864113
0.378681
0.128347
0.0472138
0.0135345
0.00561189
0.00256922
0.00428061
-0.00413091
0.0208056
-0.00426027
0.0668295
-0.0149606
0.00144788
0.00274985
0.00201158
0.00314091
15.573
11.5469
8.28563
4.50867
2.51764
1.10003
0.491268
0.177164
0.0658888
0.0199894
0.00768018
0.00322758
0.0033399
0.00173421
0.00499173
-0.00262964
0.0208973
-0.00133731
0.0206636
-0.0107429
0.00295345
0.0021654
0.00313917
0.00451012
11.6271
8.4059
4.99677
2.90451
1.35526
0.617992
0.23373
0.0880456
0.0278524
0.0102458
0.00404505
0.00361177
0.00460737
0.00296765
0.0017837
0.00479759
-0.0036568
0.0142645
-0.00467293
-0.00041168
-0.00533346
0.00220486
0.00320711
0.00453201
0.00665594
8.53171
5.4247
3.28486
1.62268
0.756411
0.297051
0.113323
0.0370534
0.0133475
0.00506434
0.00395251
0.00473611
0.00670584
0.00215868
0.00288626
0.00145379
0.00344447
-0.00607918
0.00757737
-0.00410952
-0.00242208
0.00092943
0.00319666
0.00455282
0.00667356
0.00856753
20.0995
20.1004
15.4613
20.1015
15.4624
11.1345
20.1027
15.4637
11.1373
7.90482
20.1043
15.4653
11.1415
7.9039
-0.10852
20.1062
15.4674
11.1485
7.90375
0.153317
-0.350756
0.257668
20.1085
15.4702
11.1594
7.90504
0.457196
0.375432
-0.289401
0.185206
-0.0287239
20.1116
15.474
11.1758
7.90914
0.812084
0.524403
0.0311266
-0.190737
0.184604
-0.0593603
0.0138684
20.1155
15.4793
11.1993
7.91846
1.22908
0.699418
0.110482
0.0452343
-0.143354
0.17443
-0.0456814
-0.00106143
-0.00518515
20.1205
15.4869
11.2317
7.93643
1.70654
0.908189
0.206528
0.0871505
0.00964171
0.153901
-0.117469
-0.0352394
0.00430587
-0.012604
0.00389421
20.1266
15.4973
11.2745
7.96726
2.23566
1.15477
0.325146
0.137882
0.02995
0.0106298
-0.0333918
0.139695
-0.0930056
0.00955407
-0.0105842
0.000731138
0.00126035
20.1341
15.5111
11.3285
8.01528
2.80142
1.44072
0.470704
0.200651
0.0548352
0.0199219
0.00412369
0.0120122
-0.0297118
0.124453
-0.0646104
-0.00870598
0.00168649
7.22294e-05
0.00269059
15.5286
11.3933
8.08375
3.38327
1.76512
0.646175
0.278027
0.0860257
0.0313376
0.00806783
0.00381837
-0.00760691
0.0141774
-0.0216124
0.100827
-0.0339293
0.00264957
0.00056384
0.00229002
0.00204254
15.5494
11.4671
8.17352
3.9574
2.12334
0.852871
0.371999
0.124992
0.0457025
0.0129228
0.00537494
0.00247766
0.00336768
-0.00614569
0.0171442
-0.00954152
0.0640195
-0.0162074
0.00101014
0.00253915
0.0019233
0.0030975
15.5724
11.5464
8.28207
4.50013
2.50538
1.08871
0.483533
0.172736
0.0636865
0.0190416
0.00730219
0.00308185
0.00327688
0.00131902
0.00409306
-0.00438229
0.0191583
-0.00123695
0.0220478
-0.0110239
0.00274599
0.00205144
0.00307854
0.00447659
11.6269
8.40366
4.99268
2.89681
1.34739
0.611737
0.2296
0.0857081
0.0267211
0.00975084
0.00384042
0.00352414
0.00456257
0.00286407
0.00159505
0.00455726
-0.00370707
0.0157337
-0.00211918
0.000816203
-0.0052624
0.00213388
0.00314999
0.00448655
0.00662841
8.53017
5.42463
3.28142
1.61922
0.752872
0.294189
0.11129
0.0358518
0.0127292
0.00477708
0.00382472
0.0046751
0.00667423
0.00214093
0.0028815
0.00152033
0.00378146
-0.00524935
0.00895724
-0.00277694
-0.00167122
0.00104932
0.0031743
0.00452463
0.00664689
0.00855026
5.7928
3.64592
1.89547
0.903856
0.365402
0.140028
0.0463008
0.016215
0.00590584
0.00419339
0.00480937
0.00672739
0.00857087
0.00316129
0.00211224
0.00274913
0.00101411
0.00224896
-0.00585237
0.00512423
-0.000867238
0.00216377
0.00671641
0.0045297
0.00666487
0.0085648
0.0098532
20.0988
20.0996
15.4603
20.1006
15.4612
11.1335
20.1018
15.4624
11.1361
7.90332
20.1033
15.4639
11.1402
7.90206
-0.109322
20.1051
15.4659
11.147
7.90151
0.152117
-0.351867
0.256159
20.1075
15.4686
11.1578
7.90234
0.455478
0.373288
-0.291154
0.183111
-0.0293107
20.1106
15.4723
11.174
7.90593
0.809696
0.521423
0.0301042
-0.193174
0.181614
-0.0602987
0.013101
20.1146
15.4776
11.1973
7.9147
1.22584
0.695359
0.108838
0.0441054
-0.1465
0.170427
-0.0472286
-0.00213078
-0.00504065
20.1197
15.4852
11.2297
7.93211
1.7022
0.902778
0.204014
0.0855566
0.0095242
0.148767
-0.121536
-0.0375272
0.00275684
-0.0126701
0.00389747
20.1259
15.4957
11.2725
7.96244
2.22995
1.14775
0.32145
0.135698
0.0294888
0.0104833
-0.0364742
0.133216
-0.0981421
0.00746462
-0.0110071
0.000610039
0.00118278
20.1335
15.5097
11.3266
8.01012
2.79407
1.43189
0.465457
0.197698
0.0539047
0.0195694
0.00396934
0.0094543
-0.0337271
0.116632
-0.0706581
-0.00955399
0.00134701
-7.18013e-05
0.00262457
15.5273
11.3916
8.07853
3.37434
1.75451
0.639069
0.274083
0.0844739
0.0307072
0.00781055
0.0037163
-0.00884384
0.0111658
-0.0265813
0.0924669
-0.039388
0.00208498
0.000316574
0.00219275
0.00200485
15.5483
11.4657
8.16866
3.94768
2.1114
0.843863
0.366808
0.122619
0.0446829
0.0125149
0.00521701
0.00241707
0.00263097
-0.00778506
0.0137669
-0.0147309
0.058636
-0.0179294
0.000677741
0.00239204
0.0018651
0.00306727
15.5716
11.5454
8.27802
4.49151
2.49367
1.07873
0.477244
0.169475
0.062181
0.0184238
0.00706137
0.00298909
0.00323351
0.000954443
0.00326391
-0.00613435
0.0166162
-0.00298797
0.0220166
-0.0112622
0.00257646
0.00196977
0.00303641
0.00445427
11.6264
8.40065
4.98699
2.88738
1.33837
0.605171
0.225682
0.08368
0.0258204
0.00938308
0.00369673
0.00346206
0.00452982
0.00270591
0.00124414
0.00387506
-0.00466718
0.0159692
-0.000117845
0.00148707
-0.00540317
0.00205498
0.00310121
0.00445447
0.00660847
8.52835
5.42221
3.27599
1.61361
0.748155
0.290956
0.109376
0.03489
0.0122944
0.00459283
0.00374442
0.00463401
0.00664864
0.0021009
0.00281129
0.00142418
0.00382097
-0.00481861
0.0104711
-0.00125321
-0.0010241
0.00108448
0.00314568
0.00449575
0.00662039
0.00853225
5.79298
3.64367
1.89331
0.90156
0.36354
0.13865
0.0454493
0.0157522
0.00567885
0.00408699
0.00475658
0.00669932
0.00855494
0.00315464
0.00210987
0.0027766
0.00114094
0.00259864
-0.00522566
0.00586518
-0.000298583
0.00244401
0.00675629
0.0045162
0.00664684
0.00854831
0.00984412
3.9785
2.16732
1.06117
0.442001
0.171045
0.0573416
0.0197095
0.00694664
0.00449433
0.00490088
0.00675368
0.00857521
0.00985033
0.00451919
0.00314577
0.00206522
0.00257175
0.000592797
0.00140397
-0.00287592
0.00416334
0.00272035
0.00719787
0.0145084
0.00666329
0.00856658
0.00985615
0.0104139
20.0982
20.0989
15.4595
20.0998
15.4603
11.1327
20.1009
15.4613
11.1351
7.9021
20.1023
15.4627
11.1391
7.90056
-0.10984
20.1041
15.4645
11.1457
7.89966
0.151302
-0.3526
0.255108
20.1065
15.467
11.1563
7.9001
0.454266
0.371764
-0.292376
0.181631
-0.0296227
20.1096
15.4707
11.1723
7.90323
0.807968
0.519265
0.0294824
-0.194927
0.179461
-0.0608499
0.0125944
20.1136
15.4759
11.1955
7.91149
1.22345
0.692366
0.107765
0.0433101
-0.14882
0.167498
-0.0482176
-0.00287494
-0.00474905
20.1188
15.4835
11.2277
7.92836
1.699
0.898718
0.202299
0.084386
0.0096373
0.144924
-0.124598
-0.0390587
0.00163364
-0.0125095
0.00397098
20.1251
15.494
11.2705
7.95817
2.22573
1.14238
0.318843
0.134047
0.0293255
0.010469
-0.0386298
0.128207
-0.102084
0.00590011
-0.011126
0.000619144
0.00116094
20.1328
15.5081
11.3246
8.0054
2.78862
1.42498
0.461659
0.195436
0.0533835
0.0193968
0.00388516
0.00747265
-0.0366481
0.110321
-0.075427
-0.0100017
0.00118891
-0.000146677
0.00258248
15.5259
11.3898
8.07356
3.36755
1.74598
0.633764
0.271037
0.0834679
0.0303214
0.00764585
0.0036474
-0.00963238
0.00874283
-0.0303716
0.0850989
-0.0442312
0.00173372
0.000159333
0.00212802
0.00198367
15.5471
11.4641
8.16378
3.93988
2.10146
0.836888
0.362799
0.120988
0.0440127
0.0122441
0.00511028
0.00237828
0.00210367
-0.00895431
0.010913
-0.0191207
0.0523259
-0.0201674
0.000440965
0.00229066
0.00182815
0.0030484
15.5706
11.5442
8.27363
4.48368
2.48308
1.07034
0.472161
0.167075
0.0611294
0.0180014
0.00689779
0.00292688
0.00320316
0.000656957
0.00257169
-0.00763476
0.0138194
-0.00585654
0.0204251
-0.0114843
0.00244596
0.00191274
0.0030069
0.004444
11.6256
8.39714
4.98068
2.87776
1.32981
0.59943
0.222591
0.0822075
0.0252043
0.00914013
0.00360309
0.00341888
0.00450802
0.002566
0.000918591
0.00316606
-0.00590462
0.0151514
0.000922733
0.00184747
-0.00556753
0.00198999
0.00306349
0.0044329
0.00660056
8.52585
5.41846
3.26892
1.60667
0.742775
0.287614
0.10757
0.0340585
0.0119447
0.00445351
0.00368382
0.00460253
0.00662976
0.00204056
0.00267884
0.00116206
0.00346194
-0.00497526
0.0116354
0.000306625
-0.000649462
0.00101941
0.00311186
0.00447005
0.00660121
0.00852155
5.79152
3.63986
1.88939
0.898085
0.361092
0.137139
0.0446593
0.0153815
0.00551702
0.00401468
0.00471924
0.00667627
0.00853853
0.00313776
0.00208201
0.00274203
0.00114983
0.00281249
-0.00470861
0.00684128
0.000398403
0.00274092
0.00676478
0.00449889
0.00662744
0.00853045
0.00983206
3.97701
2.16596
1.05966
0.440804
0.170138
0.0567642
0.0193801
0.00677655
0.00440996
0.00485691
0.00672955
0.00856138
0.0098425
0.00451042
0.00314448
0.00207442
0.00262056
0.000719216
0.0016503
-0.00251589
0.00449378
0.00295076
0.00728569
0.0145192
0.00664858
0.00855089
0.00984518
0.010408
2.4259
1.22198
0.524693
0.205963
0.0701909
0.0238837
0.00821494
0.0048665
0.00501534
0.00678684
0.00858089
0.00984678
0.0104101
0.00666514
0.00451494
0.00312956
0.00200643
0.00238813
0.00035306
0.0012815
0.00096703
0.00475762
0.00722459
0.0147249
0.0240756
0.00857554
0.00986224
0.0104177
0.0105508
20.0976
20.0982
15.4588
20.099
15.4595
11.132
20.1
15.4604
11.1343
7.90114
20.1014
15.4616
11.1381
7.89935
-0.110156
20.1032
15.4632
11.1445
7.89816
0.150768
-0.353058
0.254393
20.1055
15.4656
11.1549
7.89825
0.453434
0.370699
-0.293202
0.180606
-0.029748
20.1086
15.4692
11.1708
7.90099
0.806739
0.517725
0.0291411
-0.196161
0.177934
-0.0611325
0.0122889
20.1126
15.4743
11.1939
7.90879
1.22171
0.690191
0.107099
0.0427802
-0.150502
0.165388
-0.0488097
-0.00336151
-0.00437344
20.1178
15.4818
11.2259
7.92516
1.69663
0.895712
0.201164
0.0835557
0.00990119
0.142098
-0.126874
-0.040044
0.000849528
-0.0122033
0.00409455
20.1242
15.4923
11.2686
7.95445
2.22257
1.13832
0.317043
0.132827
0.029397
0.0105277
-0.040089
0.124433
-0.105077
0.00476248
-0.0110061
0.000698252
0.00118736
20.132
15.5064
11.3226
8.00119
2.78453
1.41966
0.458948
0.193717
0.0531664
0.0193585
0.00385741
0.00596762
-0.038718
0.105405
-0.0791551
-0.0101448
0.00116761
-0.000165859
0.00255879
15.5244
11.3878
8.06899
3.36239
1.73924
0.629868
0.26869
0.0828763
0.0301183
0.00755266
0.00360282
-0.0100469
0.00683982
-0.0331715
0.0790438
-0.0483164
0.00155722
7.32984e-05
0.00208717
0.00197657
15.5457
11.4623
8.15908
3.93372
2.09334
0.831572
0.359666
0.119898
0.0435887
0.0120674
0.00503741
0.00235608
0.00176759
-0.00970082
0.00857177
-0.0226029
0.0462247
-0.022738
0.000283719
0.00222188
0.0018076
0.00304017
15.5694
11.5427
8.26916
4.47701
2.47399
1.06363
0.468131
0.165371
0.0604174
0.0177156
0.00678583
0.00288658
0.0031841
0.000436328
0.0020668
-0.00874374
0.0112084
-0.0089418
0.0176568
-0.0118443
0.00235049
0.00187532
0.00298846
0.00444825
11.6244
8.39328
4.9745
2.86866
1.32224
0.594567
0.220207
0.0811352
0.0247692
0.00897101
0.0035392
0.00338843
0.00449802
0.00245027
0.000641588
0.0025371
-0.00711401
0.01354
0.000808233
0.00185407
-0.0056528
0.00194055
0.00303587
0.00442303
0.00661028
8.52288
5.41388
3.26125
1.59957
0.737701
0.284771
0.106164
0.0334549
0.0117025
0.00435968
0.00364099
0.00458153
0.0066226
0.00198703
0.00255476
0.000888541
0.00296467
-0.00547537
0.0122724
0.00173455
-0.000390562
0.000912421
0.00308232
0.0044516
0.00659369
0.00852708
5.78899
3.63464
1.88416
0.893807
0.358341
0.135586
0.0439167
0.0150582
0.00538498
0.00395647
0.00468929
0.00665895
0.00852906
0.00311159
0.00203119
0.00264352
0.00101453
0.00275774
-0.00441124
0.00786143
0.00116416
0.00295912
0.00673409
0.00448019
0.00661207
0.00852001
0.00982738
3.97432
2.16321
1.05713
0.438997
0.168982
0.056138
0.0190745
0.00663862
0.00434645
0.00482364
0.00670912
0.00854716
0.0098318
0.0044973
0.00313204
0.0020595
0.00262576
0.00079149
0.00186556
-0.00212937
0.00497852
0.00323216
0.00739415
0.0145154
0.00663303
0.00853512
0.00983275
0.0103986
2.42502
1.22096
0.523916
0.205371
0.0698108
0.0236589
0.00809377
0.00480296
0.00498045
0.00676688
0.0085693
0.0098403
0.0104052
0.00664953
0.00450736
0.00313214
0.00202354
0.0024345
0.00043128
0.00143099
0.00114237
0.00490338
0.00731782
0.0147497
0.0240756
0.00855674
0.00984813
0.0104095
0.0105448
1.37888
0.610264
0.243868
0.0846907
0.028745
0.00972983
0.00531993
0.005157
0.0068287
0.0085886
0.00984303
0.0104053
0.0105486
0.00858387
0.00666643
0.00451105
0.00310859
0.00194614
0.00223411
0.000374778
0.0021306
0.00357521
0.00754642
0.0147676
0.024215
0.0311551
0.00987554
0.0104238
0.0105529
0.0105441
20.0971
20.0977
15.4582
20.0984
15.4588
11.1315
20.0993
15.4595
11.1337
7.90037
20.1006
15.4606
11.1373
7.89838
-0.110332
20.1023
15.4621
11.1436
7.89695
0.150437
-0.353322
0.253917
20.1045
15.4644
11.1538
7.89675
0.452883
0.36997
-0.293737
0.179912
-0.029752
20.1076
15.4678
11.1695
7.89914
0.805885
0.516644
0.0289917
-0.197004
0.17687
-0.0612335
0.0121315
20.1116
15.4728
11.1924
7.90654
1.22046
0.688631
0.106722
0.0424552
-0.151691
0.163892
-0.049125
-0.00365018
-0.00396214
20.1168
15.4802
11.2243
7.92247
1.69488
0.893515
0.200446
0.0829962
0.0102531
0.140057
-0.128533
-0.0406385
0.000332802
-0.0118146
0.0042473
20.1233
15.4906
11.2668
7.95126
2.22021
1.1353
0.315833
0.131955
0.0296243
0.0106387
-0.0410363
0.121644
-0.107317
0.00396588
-0.0107323
0.000827245
0.00125294
20.1311
15.5047
11.3207
7.99752
2.78143
1.41562
0.457051
0.192439
0.0531887
0.0193971
0.00387842
0.00486273
-0.0401347
0.101678
-0.0820256
-0.0100472
0.00122378
-0.000136918
0.00254975
15.5227
11.3859
8.06489
3.35844
1.73401
0.627049
0.266893
0.0825949
0.030052
0.00751687
0.00357696
-0.0101735
0.0053783
-0.0351818
0.0742696
-0.0516482
0.00151854
4.51114e-05
0.0020647
0.00198172
15.5442
11.4604
8.15471
3.92888
2.08685
0.827598
0.35723
0.119226
0.0433495
0.0119636
0.00498944
0.00234801
0.00159576
-0.0100909
0.00670824
-0.0252452
0.0409278
-0.0253643
0.000193998
0.00217771
0.00180103
0.00304231
15.5681
11.5409
8.2648
4.47149
2.4664
1.05837
0.464931
0.164195
0.0599503
0.0175251
0.00670837
0.00286298
0.00317563
0.000285432
0.00174125
-0.00946842
0.00895747
-0.0117329
0.0142906
-0.0124349
0.0022833
0.00185388
0.0029805
0.00446934
11.623
8.38926
4.9689
2.86056
1.31592
0.590583
0.218449
0.0803829
0.0244677
0.00885327
0.0034972
0.00336913
0.00450234
0.00236217
0.000430873
0.00205771
-0.00809789
0.0115698
-0.000170143
0.00143806
-0.00565979
0.00190648
0.00301811
0.0044274
0.00664341
8.51953
5.40905
3.25364
1.59294
0.733172
0.282458
0.105089
0.0330116
0.0115285
0.00429422
0.00361044
0.00457196
0.00663271
0.00194365
0.00244761
0.000641091
0.00245916
-0.00614489
0.0122006
0.00272991
-0.00017907
0.000827918
0.00305914
0.00444323
0.00660349
0.00855795
5.78564
3.62866
1.87845
0.889458
0.355809
0.134281
0.043339
0.0148208
0.00529208
0.00391432
0.00466922
0.00665289
0.00853544
0.00308724
0.00198368
0.00253973
0.000829554
0.00253496
-0.00427515
0.00883278
0.00199145
0.00312107
0.00667512
0.00446606
0.00660666
0.0085256
0.00984067
3.97048
2.15934
1.0538
0.4368
0.167692
0.0554977
0.018785
0.00651692
0.00429176
0.0047957
0.00669357
0.00853946
0.00982836
0.0044817
0.00310959
0.00202127
0.00257492
0.000776513
0.00195002
-0.00175236
0.00555652
0.00353925
0.00749374
0.0144957
0.0066208
0.00852677
0.009828
0.010395
2.42308
1.21911
0.522599
0.204507
0.0693303
0.0234155
0.0079801
0.00474882
0.00495165
0.00674932
0.00855739
0.00983149
0.0103969
0.00663457
0.00449545
0.00312455
0.00202326
0.00246298
0.00049821
0.00158862
0.00136853
0.00511737
0.00743395
0.0147846
0.0240667
0.00854027
0.00983506
0.0103996
0.0105352
1.37816
0.609745
0.243476
0.0844429
0.0285958
0.00964713
0.00527437
0.00513076
0.00681304
0.00857935
0.00983791
0.0104014
0.0105434
0.00856047
0.00664977
0.00450428
0.00311359
0.00196245
0.00226104
0.000413953
0.00221495
0.00366178
0.00761728
0.0147987
0.0242123
0.0311479
0.00985518
0.0104119
0.0105455
0.0105368
0.69479
0.283342
0.100474
0.034236
0.0114939
0.00586138
0.00532967
0.00688098
0.008599
0.00983911
0.0104
0.010546
0.010544
0.00988679
0.00858829
0.00666793
0.00450669
0.00308311
0.00188668
0.0020788
0.000741489
0.00301651
0.00645782
0.014509
0.024338
0.0312957
0.0352087
0.0104363
0.0105571
0.0105443
0.0105179
20.0967
20.0972
15.4578
20.0978
15.4582
11.131
20.0987
15.4589
11.1331
7.89977
20.0998
15.4598
11.1366
7.89762
-0.110418
20.1014
15.4612
11.1427
7.89598
0.150246
-0.353455
0.253609
20.1036
15.4633
11.1528
7.89554
0.452534
0.369482
-0.294065
0.179454
-0.029683
20.1066
15.4665
11.1683
7.89764
0.80531
0.515899
0.028968
-0.197558
0.176145
-0.0612176
0.0120778
20.1106
15.4714
11.191
7.9047
1.21958
0.68753
0.106542
0.042282
-0.152506
0.162852
-0.0492524
-0.00379342
-0.0035513
20.1158
15.4787
11.2228
7.92022
1.6936
0.891932
0.200024
0.0826466
0.0106447
0.138609
-0.129711
-0.0409587
2.10571e-05
-0.011392
0.00442021
20.1223
15.489
11.2651
7.94858
2.21845
1.13308
0.315051
0.13136
0.0299449
0.0107809
-0.0416118
0.119621
-0.108957
0.00343885
-0.0103685
0.000985188
0.00134924
20.1301
15.5031
11.3189
7.99437
2.77907
1.41259
0.455754
0.191516
0.0533723
0.0194911
0.00393906
0.00408408
-0.0410634
0.0989095
-0.0841947
-0.00979219
0.00133717
-6.89634e-05
0.00255295
15.5211
11.3839
8.0613
3.3554
1.73
0.625044
0.265547
0.0825577
0.0300668
0.00753051
0.00356603
-0.0100695
0.00429678
-0.0365745
0.0706171
-0.054291
0.00156172
6.67747e-05
0.00205684
0.00199754
15.5426
11.4585
8.15076
3.92509
2.08174
0.824672
0.35535
0.118868
0.0432497
0.0119183
0.00496063
0.00235223
0.00155843
-0.0102046
0.00526426
-0.027184
0.0366045
-0.027808
0.000161126
0.00215272
0.00180665
0.00305425
15.5666
11.5391
8.26069
4.467
2.46023
1.05436
0.46241
0.163433
0.0596693
0.0174086
0.00665639
0.00285357
0.00317744
0.000197303
0.00157404
-0.00985594
0.00711734
-0.0140283
0.0108702
-0.0132526
0.0022391
0.0018463
0.00298273
0.00450908
11.6213
8.38528
4.96402
2.85361
1.31082
0.58735
0.217189
0.0798696
0.0242615
0.00877046
0.00347196
0.0033603
0.00452326
0.00229839
0.000284153
0.00173904
-0.00878673
0.0096053
-0.00159592
0.000609503
-0.00564064
0.0018864
0.00301007
0.00444838
0.00670522
8.51598
5.40438
3.2466
1.58715
0.729316
0.280673
0.104302
0.0326948
0.0114047
0.00425036
0.00359087
0.00457636
0.00666584
0.00191283
0.00236387
0.00044433
0.00203359
-0.0068213
0.0114731
0.00315978
-3.02589e-05
0.000806837
0.00304365
0.00444785
0.0066364
0.00862287
5.78184
3.62244
1.8728
0.885359
0.353623
0.133226
0.0428945
0.0146437
0.00522537
0.00388379
0.00466015
0.00666355
0.00856664
0.00306713