/*--------------------------------*- C++ -*----------------------------------*\
  =========                 |
  \\      /  F ield         | OpenFOAM: The Open Source CFD Toolbox
   \\    /   O peration     | Website:  https://openfoam.org
    \\  /    A nd           | Version:  7
     \\/     M anipulation  |
\*---------------------------------------------------------------------------*/
FoamFile
{
    version     2.0;
    format      ascii;
    class       surfaceScalarField;
    location    "100";
    object      phi;
}
// * * * * * * * * * * * * * * * * * * * * * * * * * * * * * * * * * * * * * //

dimensions      [0 3 -1 0 0 0 0];

internalField   nonuniform List<scalar> 
125162
(
5.1173e-15
-6.49409e-13
3.18642e-11
1.43953e-14
-7.25509e-13
3.53554e-11
6.29678e-15
-1.43175e-12
4.0239e-11
4.51806e-14
-5.71762e-13
3.23908e-11
2.53886e-14
-8.06716e-13
3.91665e-11
1.81776e-14
-1.59925e-12
4.46468e-11
7.83053e-14
-6.25231e-13
3.59475e-11
7.62377e-15
-2.37728e-12
5.05943e-11
5.76239e-14
-1.39865e-12
4.10083e-11
1.08985e-13
-7.89222e-12
4.0174e-11
3.66247e-14
-8.93963e-13
4.3311e-11
3.20387e-14
-1.77804e-12
4.94593e-11
1.03977e-13
-6.88339e-13
3.98292e-11
2.27405e-14
-2.65453e-12
5.6135e-11
9.89798e-14
-1.5321e-12
4.55124e-11
1.74155e-13
-8.93534e-12
4.48176e-11
8.899e-15
-3.49865e-12
6.32411e-11
7.32275e-14
-2.53342e-12
5.16559e-11
1.36254e-13
-1.70798e-11
5.00596e-11
3.29283e-13
-1.24851e-12
4.10933e-11
4.77103e-14
-9.88438e-13
4.77993e-11
4.62902e-14
-1.97044e-12
5.46928e-11
1.23918e-13
-7.6218e-13
4.40532e-11
4.01988e-14
-2.95087e-12
6.21854e-11
1.31606e-13
-1.68866e-12
5.0427e-11
1.9672e-13
-1.00003e-11
4.98069e-11
2.81119e-14
-3.90444e-12
7.01638e-11
1.24701e-13
-2.77975e-12
5.73312e-11
2.18285e-13
-1.93146e-11
5.58096e-11
4.20119e-13
-1.89329e-12
4.66201e-11
9.80907e-15
-4.80163e-12
7.84719e-11
9.30182e-14
-4.0866e-12
6.47013e-11
1.65378e-13
-2.77075e-11
6.21181e-11
4.12235e-13
-4.57545e-12
5.29743e-11
9.3489e-12
-9.4925e-10
9.59891e-10
2.11025e-11
5.77775e-14
-1.08962e-12
5.26359e-11
6.03039e-14
-2.17871e-12
6.03604e-11
1.36901e-13
-8.42345e-13
4.86286e-11
5.8198e-14
-3.2702e-12
6.87652e-11
1.56661e-13
-1.86933e-12
5.57749e-11
2.00269e-13
-1.11319e-11
5.51816e-11
5.0035e-14
-4.33932e-12
7.77256e-11
1.65783e-13
-3.06663e-12
6.35223e-11
2.47525e-13
-2.16099e-11
6.20073e-11
4.32794e-13
-2.15261e-12
5.19468e-11
3.41808e-14
-5.35385e-12
8.70569e-11
1.56416e-13
-4.49313e-12
7.18138e-11
2.6911e-13
-3.12834e-11
6.91962e-11
5.24679e-13
-5.74613e-12
5.955e-11
6.35917e-12
-1.12631e-09
1.15164e-09
2.42857e-11
9.92154e-15
-6.28328e-12
9.65044e-11
1.18037e-13
-6.17667e-12
8.04439e-11
1.92429e-13
-3.9508e-11
7.63093e-11
5.06531e-13
-1.03094e-11
6.73455e-11
8.40468e-12
-9.32195e-10
2.75147e-11
5.26256e-11
8.46762e-10
6.05035e-11
1.09606e-11
-9.03319e-10
9.07928e-10
5.53356e-12
6.63409e-14
-1.19783e-12
5.7824e-11
7.30427e-14
-2.40188e-12
6.6468e-11
1.43908e-13
-9.31233e-13
5.35601e-11
7.58486e-14
-3.61578e-12
7.5891e-11
1.73097e-13
-2.06584e-12
6.15675e-11
1.94587e-13
-1.23366e-11
6.09709e-11
7.26809e-14
-4.80864e-12
8.59491e-11
1.97125e-13
-3.39444e-12
7.0259e-11
2.52499e-13
-2.40534e-11
6.86914e-11
4.30462e-13
-2.39902e-12
5.7583e-11
6.16213e-14
-5.94818e-12
9.6438e-11
2.077e-13
-4.96169e-12
7.95693e-11
3.08209e-13
-3.49857e-11
7.6859e-11
5.47707e-13
-6.44106e-12
6.62727e-11
3.71485e-12
-1.27307e-09
1.30069e-09
2.69718e-11
4.06883e-14
-6.99801e-12
1.07055e-10
1.95105e-13
-6.80723e-12
8.92939e-11
3.24146e-13
-4.45092e-11
8.49078e-11
6.51565e-13
-1.20394e-11
7.53445e-11
6.52443e-12
-1.09583e-09
3.09503e-11
3.26492e-11
1.09535e-09
7.62622e-11
7.36574e-12
-1.08381e-09
1.10531e-09
6.37875e-12
8.86075e-15
-7.92776e-12
1.1738e-10
1.4924e-13
-8.90254e-12
9.90811e-11
2.09917e-13
-5.20498e-11
9.27758e-11
6.21574e-13
-1.90091e-11
8.43875e-11
7.87986e-12
-9.07622e-10
3.4893e-11
1.0179e-11
-8.93239e-10
7.25561e-12
1.21485e-10
6.38898e-10
8.63791e-11
5.65097e-11
8.92344e-10
1.95778e-11
1.15042e-11
-6.89439e-10
6.80804e-10
2.66389e-12
7.29257e-14
-1.31275e-12
6.33544e-11
8.38712e-14
-2.64056e-12
7.30196e-11
1.4528e-13
-1.02737e-12
5.885e-11
9.1902e-14
-3.98627e-12
8.35699e-11
1.81916e-13
-2.2828e-12
6.78108e-11
1.83673e-13
-1.36197e-11
6.71907e-11
9.48124e-14
-5.31651e-12
9.48551e-11
2.17806e-13
-3.75138e-12
7.75558e-11
2.45557e-13
-2.6656e-11
7.58938e-11
3.99682e-13
-2.63528e-12
6.3637e-11
8.99738e-14
-6.59062e-12
1.0664e-10
2.4659e-13
-5.4922e-12
8.8008e-11
3.15805e-13
-3.89369e-11
8.51349e-11
5.44148e-13
-7.16707e-12
7.3463e-11
2.17261e-12
-1.41404e-09
1.44339e-09
2.97737e-11
7.48801e-14
-7.7713e-12
1.18589e-10
2.58349e-13
-7.52491e-12
9.8938e-11
3.78058e-13
-4.97453e-11
9.4275e-11
6.89724e-13
-1.34051e-11
8.37849e-11
3.87362e-12
-1.23843e-09
3.42817e-11
1.90187e-11
1.22896e-09
8.53533e-11
4.50459e-12
-1.2255e-09
1.24839e-09
6.94677e-12
4.72676e-14
-8.8187e-12
1.30205e-10
2.41508e-13
-9.83526e-12
1.09991e-10
3.77948e-13
-5.8479e-11
1.03096e-10
8.05524e-13
-2.15349e-11
9.42194e-11
6.79213e-12
-1.05818e-09
3.87855e-11
7.76154e-12
-1.05853e-09
8.08245e-12
1.10154e-10
9.71048e-10
1.35634e-10
3.5175e-11
1.17792e-09
2.49921e-11
8.65535e-12
-8.50816e-10
8.56939e-10
3.10507e-12
6.63305e-15
-9.69824e-12
1.40872e-10
1.8685e-13
-1.23056e-11
1.20596e-10
2.08594e-13
-6.47789e-11
1.11602e-10
7.65107e-13
-3.11093e-11
1.04111e-10
7.64145e-12
-8.74594e-10
4.37178e-11
9.6105e-12
-8.7781e-10
9.8526e-12
1.10778e-11
-6.96615e-10
3.35469e-12
1.08702e-10
4.76697e-10
5.34983e-11
1.1517e-10
8.17407e-10
4.61452e-11
5.67277e-11
6.34706e-10
8.94782e-12
9.65224e-12
-4.8911e-10
4.81264e-10
8.57695e-13
7.72525e-14
-1.43405e-12
6.92085e-11
9.2198e-14
-2.89411e-12
8.00034e-11
1.42012e-13
-1.13073e-12
6.44884e-11
1.05539e-13
-4.38257e-12
9.18071e-11
1.83643e-13
-2.51728e-12
7.45078e-11
1.70011e-13
-1.49852e-11
7.38489e-11
1.1495e-13
-5.86128e-12
1.04453e-10
2.28862e-13
-4.14416e-12
8.54202e-11
2.31923e-13
-2.94288e-11
8.36335e-11
3.56786e-13
-2.90321e-12
7.01368e-11
1.17576e-13
-7.28589e-12
1.1769e-10
2.72438e-13
-6.07036e-12
9.71482e-11
3.07836e-13
-4.31486e-11
9.40563e-11
5.05789e-13
-7.89764e-12
8.11946e-11
1.31274e-12
-1.56298e-09
1.59466e-09
3.28132e-11
1.10148e-13
-8.6087e-12
1.31134e-10
3.06131e-13
-8.33065e-12
1.09431e-10
3.90587e-13
-5.53515e-11
1.0441e-10
6.85646e-13
-1.49036e-11
9.28755e-11
2.30467e-12
-1.37686e-09
3.78515e-11
1.10389e-11
1.35734e-09
9.40349e-11
2.85987e-12
-1.35843e-09
1.38233e-09
7.51908e-12
8.95326e-14
-9.78776e-12
1.44231e-10
3.18303e-13
-1.08834e-11
1.21871e-10
4.54053e-13
-6.53025e-11
1.14419e-10
8.65252e-13
-2.39172e-11
1.04727e-10
4.18655e-12
-1.19493e-09
4.289e-11
4.78708e-12
-1.19703e-09
8.77866e-12
7.38886e-11
1.10782e-09
1.57405e-10
2.15901e-11
1.31971e-09
2.76167e-11
5.65364e-12
-9.70527e-10
9.77128e-10
3.34725e-12
5.36194e-14
-1.07758e-11
1.56256e-10
2.95558e-13
-1.36243e-11
1.33885e-10
4.22287e-13
-7.25617e-11
1.2386e-10
9.92341e-13
-3.48283e-11
1.16162e-10
7.11033e-12
-1.01177e-09
4.83363e-11
8.19021e-12
-1.0291e-09
1.07816e-11
9.06413e-12
-8.44466e-10
3.74549e-12
1.25076e-10
8.44893e-10
1.09781e-10
1.0766e-10
1.25158e-09
6.94799e-11
4.09763e-11
8.85881e-10
1.18012e-11
7.62662e-12
-6.17243e-10
6.21399e-10
9.74342e-13
3.92211e-15
-1.15261e-11
1.66364e-10
2.2951e-13
-1.63296e-11
1.44667e-10
1.81375e-13
-7.70545e-11
1.3269e-10
9.41009e-13
-4.66593e-11
1.26211e-10
7.43444e-12
-8.32275e-10
5.43577e-11
9.27734e-12
-8.57019e-10
1.36494e-11
1.06147e-11
-7.01766e-10
4.3882e-12
9.52194e-12
-4.96396e-10
1.1182e-12
4.24829e-11
1.88995e-11
4.15315e-10
9.23205e-11
7.38241e-10
4.03438e-11
1.19299e-10
5.41211e-10
2.03409e-11
4.56757e-11
4.41583e-10
2.95277e-12
6.86622e-12
-3.1049e-10
3.0407e-10
4.11379e-13
7.92046e-14
-1.56134e-12
7.53663e-11
9.76688e-14
-3.16174e-12
8.7396e-11
1.35054e-13
-1.24034e-12
7.04558e-11
1.16026e-13
-4.80361e-12
1.00588e-10
1.79499e-13
-2.76906e-12
8.16458e-11
1.54782e-13
-1.64329e-11
8.09365e-11
1.32042e-13
-6.44414e-12
1.14748e-10
2.31031e-13
-4.56838e-12
9.3856e-11
2.14748e-13
-3.238e-11
9.19197e-11
3.06609e-13
-3.19296e-12
7.7092e-11
1.42696e-13
-8.03222e-12
1.29597e-10
2.86202e-13
-6.7045e-12
1.06999e-10
2.91151e-13
-4.76371e-11
1.03645e-10
4.51315e-13
-8.70836e-12
8.94931e-11
8.19613e-13
-1.72212e-09
1.75665e-09
3.61074e-11
1.44352e-13
-9.5152e-12
1.44719e-10
3.38144e-13
-9.20921e-12
1.20796e-10
3.82432e-13
-6.13345e-11
1.15342e-10
6.38076e-13
-1.64518e-11
1.02658e-10
1.407e-12
-1.52262e-09
4.17334e-11
6.59897e-12
1.49569e-09
1.03411e-10
1.93978e-12
-1.50008e-09
1.52565e-09
8.15693e-12
1.33007e-13
-1.0839e-11
1.59486e-10
3.76332e-13
-1.20514e-11
1.34796e-10
4.75641e-13
-7.26369e-11
1.26695e-10
8.60796e-13
-2.65802e-11
1.16091e-10
2.55796e-12
-1.32971e-09
4.73552e-11
3.06979e-12
-1.32838e-09
9.52539e-12
4.48258e-11
1.21361e-09
1.72787e-10
1.3783e-11
1.45426e-09
2.99029e-11
3.5938e-12
-1.07665e-09
1.08266e-09
3.56773e-12
1.05147e-13
-1.19529e-11
1.73087e-10
3.87136e-13
-1.50901e-11
1.48346e-10
5.30256e-13
-8.09411e-11
1.37402e-10
1.07926e-12
-3.86649e-11
1.2908e-10
4.6293e-12
-1.14113e-09
5.34099e-11
5.20565e-12
-1.16287e-09
1.17137e-11
5.88003e-12
-9.62582e-10
4.01791e-12
9.71974e-11
9.9953e-10
1.36173e-10
7.73916e-11
1.42671e-09
8.06748e-11
2.7331e-11
1.0055e-09
1.28901e-11
5.20321e-12
-7.0659e-10
7.11363e-10
9.97462e-13
5.97584e-14
-1.27952e-11
1.84527e-10
3.55609e-13
-1.81098e-11
1.60616e-10
4.4767e-13
-8.60583e-11
1.47115e-10
1.21433e-12
-5.20375e-11
1.40796e-10
7.34948e-12
-9.5551e-10
5.99862e-11
8.64599e-12
-9.94998e-10
1.48631e-11
9.41492e-12
-8.37257e-10
4.77215e-12
7.98905e-12
-6.13177e-10
1.21236e-12
5.72768e-11
4.49303e-11
7.85169e-10
1.12283e-10
1.27106e-09
7.03404e-11
1.26691e-10
9.14704e-10
3.32658e-11
3.54834e-11
6.39581e-10
3.81216e-12
5.7271e-12
-3.98521e-10
4.00162e-10
4.72305e-13
2.08399e-15
-1.33027e-11
1.92756e-10
2.73627e-13
-2.07879e-11
1.70548e-10
1.28579e-13
-8.81731e-11
1.55657e-10
1.1436e-12
-6.50763e-11
1.49964e-10
6.99674e-12
-7.80287e-10
6.72263e-11
9.04649e-12
-8.30757e-10
1.90492e-11
1.02042e-11
-7.04285e-10
5.96444e-12
9.23637e-12
-5.02776e-10
1.5319e-12
6.88587e-12
-3.16787e-10
5.29369e-13
3.70401e-11
1.47205e-11
7.0538e-10
3.2559e-11
1.26521e-11
3.70104e-10
9.93319e-11
4.61205e-10
2.10179e-11
9.2018e-11
3.62759e-10
7.14713e-12
3.16191e-11
2.74071e-10
1.3327e-12
4.08474e-12
-1.72036e-10
1.68228e-10
1.3469e-13
7.88442e-14
-1.69385e-12
8.1786e-11
1.00135e-13
-3.44262e-12
9.51721e-11
1.25425e-13
-1.35555e-12
7.67314e-11
1.22915e-13
-5.2481e-12
1.09882e-10
1.70698e-13
-3.03597e-12
8.92004e-11
1.38743e-13
-1.79596e-11
8.84314e-11
1.45184e-13
-7.06353e-12
1.25723e-10
2.25813e-13
-5.02344e-12
1.02847e-10
1.95554e-13
-3.55089e-11
1.00741e-10
2.56352e-13
-3.5058e-12
8.44925e-11
1.63992e-13
-8.83094e-12
1.4237e-10
2.88918e-13
-7.3889e-12
1.17566e-10
2.6982e-13
-5.24149e-11
1.13912e-10
3.87845e-13
-9.57996e-12
9.83702e-11
5.26459e-13
-1.89229e-09
1.93002e-09
3.96543e-11
1.75469e-13
-1.04891e-11
1.59361e-10
3.55148e-13
-1.01698e-11
1.33045e-10
3.62673e-13
-6.77137e-11
1.27096e-10
5.69251e-13
-1.81512e-11
1.13157e-10
8.85846e-13
-1.67804e-09
4.59354e-11
4.07043e-12
1.64552e-09
1.13653e-10
1.35774e-12
-1.65246e-09
1.68028e-09
8.86977e-12
1.75033e-13
-1.19776e-11
1.76007e-10
4.15539e-13
-1.33253e-11
1.48796e-10
4.69306e-13
-8.04778e-11
1.39946e-10
8.02196e-13
-2.93788e-11
1.28328e-10
1.5841e-12
-1.47121e-09
5.22197e-11
2.09141e-12
-1.46773e-09
1.03633e-11
2.69164e-11
1.32517e-09
1.88428e-10
9.3324e-12
1.60116e-09
3.23529e-11
2.33188e-12
-1.18743e-09
1.19305e-09
3.79923e-12
1.58046e-13
-1.32318e-11
1.91391e-10
4.56671e-13
-1.67141e-11
1.64079e-10
5.67473e-13
-8.99867e-11
1.52109e-10
1.07474e-12
-4.29657e-11
1.43085e-10
2.92459e-12
-1.27088e-09
5.89659e-11
3.4088e-12
-1.29198e-09
1.27483e-11
3.73429e-12
-1.06927e-09
4.2932e-12
6.36572e-11
1.09603e-09
1.51123e-10
5.23972e-11
1.56372e-09
8.83274e-11
1.76812e-11
1.10855e-09
1.36615e-11
3.4274e-12
-7.82717e-10
7.87063e-10
9.98021e-13
1.21259e-13
-1.41849e-11
2.04401e-10
4.62752e-13
-2.00731e-11
1.77963e-10
5.97873e-13
-9.58771e-11
1.63132e-10
1.33262e-12
-5.77949e-11
1.56413e-10
5.11481e-12
-1.07608e-09
6.62681e-11
5.7812e-12
-1.12278e-09
1.61865e-11
6.17257e-12
-9.5274e-10
5.11429e-12
5.34399e-12
-7.01169e-10
1.2417e-12
4.72441e-11
5.8344e-11
9.51219e-10
9.493e-11
1.49436e-09
8.58755e-11
9.83197e-11
1.07617e-09
3.83712e-11
2.51416e-11
7.3063e-10
3.96539e-12
4.14247e-12
-4.58063e-10
4.60163e-10
4.8142e-13
6.61681e-14
-1.47584e-11
2.13801e-10
4.17663e-13
-2.30798e-11
1.89353e-10
4.46981e-13
-9.82257e-11
1.72465e-10
1.46476e-12
-7.25237e-11
1.6728e-10
7.36496e-12
-8.89242e-10
7.41596e-11
9.04503e-12
-9.55796e-10
2.07861e-11
9.74304e-12
-8.28357e-10
6.42427e-12
8.22243e-12
-6.09009e-10
1.61848e-12
6.00998e-12
-3.97009e-10
5.76859e-13
5.06574e-11
2.89692e-11
1.2734e-09
4.77881e-11
3.39193e-11
7.3602e-10
1.34742e-10
9.09553e-10
4.00813e-11
1.07687e-10
6.45687e-10
1.14907e-11
2.63093e-11
4.07521e-10
1.76296e-12
3.5481e-12
-2.23619e-10
2.24492e-10
1.35747e-13
2.68735e-15
-1.48807e-11
2.18448e-10
3.13618e-13
-2.53516e-11
1.97006e-10
6.07089e-14
-9.74036e-11
1.79718e-10
1.35291e-12
-8.5046e-11
1.74274e-10
6.19571e-12
-7.19172e-10
8.26531e-11
8.69053e-12
-7.98701e-10
2.648e-11
9.82624e-12
-7.03385e-10
8.3227e-12
8.87391e-12
-5.07877e-10
2.19227e-12
6.74591e-12
-3.22712e-10
7.10475e-13
4.14378e-12
-1.75832e-10
1.81456e-13
3.9168e-11
9.99322e-12
4.26764e-10
2.90553e-11
1.13649e-11
6.77612e-10
5.37918e-11
1.50196e-11
3.01292e-10
7.34789e-11
3.03373e-10
6.92519e-12
6.20988e-11
2.16368e-10
2.75122e-12
1.84672e-11
1.50669e-10
4.23937e-13
2.0385e-12
-8.29988e-11
8.10359e-11
5.90094e-14
7.63763e-14
-1.83043e-12
8.84186e-11
9.96705e-14
-3.735e-12
1.03279e-10
1.14051e-13
-1.47523e-12
8.32727e-11
1.26019e-13
-5.7146e-12
1.19659e-10
1.58522e-13
-3.31652e-12
9.71452e-11
1.22452e-13
-1.95614e-11
9.63092e-11
1.53815e-13
-7.71751e-12
1.3734e-10
2.14742e-13
-5.50575e-12
1.12363e-10
1.75315e-13
-3.88086e-11
1.1007e-10
2.09603e-13
-3.83696e-12
9.23151e-11
1.80363e-13
-9.67998e-12
1.55986e-10
2.82397e-13
-8.12234e-12
1.28828e-10
2.45835e-13
-5.74805e-11
1.24843e-10
3.2422e-13
-1.05149e-11
1.07814e-10
3.47521e-13
-2.07342e-09
2.11465e-09
4.34406e-11
2.01818e-13
-1.15318e-11
1.75067e-10
3.58543e-13
-1.12057e-11
1.46184e-10
3.36654e-13
-7.45052e-11
1.39682e-10
4.89232e-13
-1.99729e-11
1.24385e-10
5.72945e-13
-1.84406e-09
5.04541e-11
2.58661e-12
1.80676e-09
1.24749e-10
9.56266e-13
-1.81587e-09
1.84627e-09
9.6563e-12
2.13237e-13
-1.3202e-11
1.93812e-10
4.36372e-13
-1.47142e-11
1.63884e-10
4.47117e-13
-8.88442e-11
1.54198e-10
7.15527e-13
-3.24292e-11
1.4146e-10
1.00711e-12
-1.62179e-09
5.7483e-11
1.46922e-12
-1.6172e-09
1.12945e-11
1.64863e-11
1.45004e-09
2.05908e-10
6.50125e-12
1.76169e-09
3.50837e-11
1.53072e-12
-1.30608e-09
1.31169e-09
4.05413e-12
2.09088e-13
-1.46177e-11
2.11216e-10
5.04068e-13
-1.8485e-11
1.8112e-10
5.66769e-13
-9.96799e-11
1.67999e-10
1.00316e-12
-4.75368e-11
1.58176e-10
1.84463e-12
-1.40683e-09
6.50241e-11
2.34106e-12
-1.42835e-09
1.39089e-11
2.42344e-12
-1.18035e-09
4.59286e-12
3.94166e-11
1.18535e-09
1.64066e-10
3.58645e-11
1.71054e-09
9.55882e-11
1.15322e-11
1.21716e-09
1.43964e-11
2.28516e-12
-8.61293e-10
8.65241e-10
9.93387e-13
1.84461e-13
-1.56966e-11
2.26015e-10
5.44841e-13
-2.22388e-11
1.96834e-10
6.59739e-13
-1.06522e-10
1.80552e-10
1.32925e-12
-6.42268e-11
1.73374e-10
3.35918e-12
-1.1992e-09
7.31575e-11
3.902e-12
-1.2488e-09
1.76685e-11
3.9578e-12
-1.0598e-09
5.48593e-12
3.47698e-12
-7.77816e-10
1.25933e-12
3.24191e-11
6.57335e-11
1.04512e-09
6.99944e-11
1.64476e-09
9.50184e-11
6.81997e-11
1.18625e-09
4.07523e-11
1.7055e-11
8.04887e-10
3.92389e-12
2.8451e-12
-5.07495e-10
5.09316e-10
4.74971e-13
1.37511e-13
-1.63537e-11
2.36827e-10
5.40639e-13
-2.55955e-11
2.098e-10
6.47136e-13
-1.0929e-10
1.91175e-10
1.61729e-12
-8.05971e-11
1.85782e-10
5.52378e-12
-9.99762e-10
8.1936e-11
6.46177e-12
-1.07664e-09
2.27121e-11
6.60191e-12
-9.40317e-10
6.90524e-12
5.46005e-12
-6.94963e-10
1.67069e-12
4.22897e-12
-4.55627e-10
5.87243e-13
4.49673e-11
3.65377e-11
1.52186e-09
4.14218e-11
4.57318e-11
9.11854e-10
1.21642e-10
1.1259e-09
4.9253e-11
8.99924e-11
7.73766e-10
1.29291e-11
1.99191e-11
4.687e-10
1.81913e-12
2.69286e-12
-2.578e-10
2.59019e-10
1.18023e-13
7.36329e-14
-1.65034e-11
2.42304e-10
4.75266e-13
-2.81642e-11
2.18724e-10
4.19705e-13
-1.08298e-10
1.99066e-10
1.72304e-12
-9.47926e-11
1.94363e-10
7.04925e-12
-8.14018e-10
9.12024e-11
9.26008e-12
-9.11227e-10
2.90211e-11
1.00144e-11
-8.16735e-10
8.97654e-12
8.37288e-12
-6.04389e-10
2.30534e-12
6.15417e-12
-3.95548e-10
7.49149e-13
3.73448e-12
-2.22812e-10
1.79164e-13
6.03834e-11
1.99207e-11
8.97387e-10
4.25873e-11
2.38177e-11
1.26997e-09
8.52221e-11
5.12212e-11
6.53369e-10
1.12397e-10
6.33452e-10
1.33983e-11
7.88119e-11
3.97586e-10
4.71174e-12
1.61255e-11
2.28127e-10
4.69373e-13
1.80711e-12
-1.08513e-10
1.0882e-10
6.08088e-14
6.76718e-15
2.41449e-10
3.43295e-13
-2.95745e-11
2.22328e-10
-4.37366e-15
-1.04059e-10
2.03666e-10
1.5344e-12
-1.0464e-10
1.97778e-10
5.07356e-12
-6.50689e-10
1.00716e-10
8.04294e-12
-7.60421e-10
3.63301e-11
9.32823e-12
-6.97982e-10
1.17486e-11
8.47699e-12
-5.11262e-10
3.23032e-12
6.49078e-12
-3.28009e-10
9.98463e-13
4.09459e-12
-1.79472e-10
2.56025e-13
2.07953e-12
-8.49749e-11
7.80403e-14
2.80364e-11
2.80676e-12
2.82523e-10
3.03412e-11
8.27654e-12
3.99511e-10
4.88776e-11
2.06619e-11
6.23092e-10
7.71658e-11
1.07013e-11
2.13425e-10
4.81404e-11
1.72604e-10
2.54866e-12
3.54657e-11
1.17149e-10
8.05807e-13
9.13323e-12
7.21462e-11
1.80405e-13
8.83625e-13
-3.52176e-11
3.43791e-11
1.38579e-14
7.21468e-14
-1.97002e-12
9.52009e-11
9.65468e-14
-4.03636e-12
1.11655e-10
1.01756e-13
-1.59856e-12
9.00294e-11
1.25426e-13
-6.20021e-12
1.29852e-10
1.44146e-13
-3.60802e-12
1.05426e-10
1.06387e-13
-2.12287e-11
1.04517e-10
1.57705e-13
-8.40392e-12
1.4956e-10
1.99428e-13
-6.01262e-12
1.22371e-10
1.54739e-13
-4.22707e-11
1.19875e-10
1.68556e-13
-4.18431e-12
1.00535e-10
1.91112e-13
-1.05766e-11
1.704e-10
2.68566e-13
-8.89945e-12
1.40747e-10
2.20466e-13
-6.28227e-11
1.36403e-10
2.65078e-13
-1.15032e-11
1.17795e-10
2.34363e-13
-2.265e-09
2.30998e-09
4.7449e-11
2.22067e-13
-1.26406e-11
1.91809e-10
3.50485e-13
-1.23148e-11
1.60187e-10
3.07044e-13
-8.17062e-11
1.53083e-10
4.0895e-13
-2.19202e-11
1.36329e-10
3.80545e-13
-2.02069e-09
5.52748e-11
1.68972e-12
1.97891e-09
1.36634e-10
6.7021e-13
-1.98987e-09
2.02309e-09
1.051e-11
2.45551e-13
-1.45134e-11
2.12913e-10
4.40636e-13
-1.62109e-11
1.80068e-10
4.16229e-13
-9.77534e-11
1.69463e-10
6.15013e-13
-3.56939e-11
1.55504e-10
6.56187e-13
-1.78247e-09
6.31405e-11
1.03802e-12
-1.7773e-09
1.23161e-11
1.03963e-11
1.58754e-09
2.25306e-10
4.55691e-12
1.93486e-09
3.81088e-11
1.00436e-12
-1.43329e-09
1.43913e-09
4.33907e-12
2.55453e-13
-1.61095e-11
2.32582e-10
5.29398e-13
-2.04112e-11
1.99484e-10
5.43961e-13
-1.10033e-10
1.85096e-10
8.94737e-13
-5.2496e-11
1.74373e-10
1.18622e-12
-1.55125e-09
7.15783e-11
1.65242e-12
-1.57422e-09
1.51908e-11
1.59414e-12
-1.29888e-09
4.92441e-12
2.43482e-11
1.2867e-09
1.78409e-10
2.48777e-11
1.8751e-09
1.0348e-10
7.56418e-12
1.33555e-09
1.51992e-11
1.54937e-12
-9.45519e-10
9.49318e-10
9.91575e-13
2.45462e-13
-1.73358e-11
2.49424e-10
6.01359e-13
-2.45997e-11
2.17274e-10
6.70767e-13
-1.17962e-10
1.9939e-10
1.24325e-12
-7.11158e-11
1.91664e-10
2.16826e-12
-1.32813e-09
8.06702e-11
2.71249e-12
-1.38146e-09
1.93227e-11
2.58115e-12
-1.17096e-09
5.89947e-12
2.30181e-12
-8.56804e-10
1.27877e-12
2.05087e-11
7.15629e-11
1.1257e-09
4.95729e-11
1.79253e-09
1.02495e-10
4.55783e-11
1.29304e-09
4.23215e-11
1.1537e-11
8.81345e-10
3.81089e-12
1.90717e-12
-5.57908e-10
5.59376e-10
4.63369e-13
2.11201e-13
-1.80901e-11
2.61869e-10
6.35997e-13
-2.83621e-11
2.32043e-10
7.43788e-13
-1.2133e-10
2.11546e-10
1.61826e-12
-8.9574e-11
2.05899e-10
3.79273e-12
-1.11455e-09
9.04556e-11
4.52708e-12
-1.19857e-09
2.48578e-11
4.3302e-12
-1.0473e-09
7.44246e-12
3.53137e-12
-7.72126e-10
1.72406e-12
2.84717e-12
-5.05442e-10
5.87505e-13
3.45468e-11
4.06102e-11
1.6803e-09
2.94514e-11
5.21141e-11
1.00498e-09
9.21395e-11
1.25702e-09
5.37464e-11
6.63508e-11
8.56235e-10
1.3046e-11
1.41824e-11
5.17219e-10
1.75716e-12
1.94846e-12
-2.8568e-10
2.86805e-10
9.41553e-14
1.53662e-13
-1.8281e-11
2.68399e-10
6.13664e-13
-3.1244e-11
2.42337e-10
6.70709e-13
-1.20347e-10
2.20606e-10
1.91204e-12
-1.05396e-10
2.15785e-10
5.73419e-12
-9.13465e-10
1.00799e-10
7.13454e-12
-1.02439e-09
3.18163e-11
7.16574e-12
-9.24456e-10
9.69883e-12
5.63802e-12
-6.87734e-10
2.41075e-12
4.24008e-12
-4.5281e-10
7.67272e-13
2.74748e-12
-2.56389e-10
1.63033e-13
5.79308e-11
2.51594e-11
1.13973e-09
3.9248e-11
3.07755e-11
1.54015e-09
8.01068e-11
7.36338e-11
8.43335e-10
1.10622e-10
8.08307e-10
1.64874e-11
7.04309e-11
4.84771e-10
5.23834e-12
1.28575e-11
2.63721e-10
3.84316e-13
1.41034e-12
-1.25228e-10
1.25691e-10
5.20752e-14
8.27059e-14
2.67828e-10
5.20604e-13
-3.28646e-11
2.46827e-10
3.74e-13
-1.15547e-10
2.25595e-10
1.95341e-12
-1.16649e-10
2.20504e-10
6.37294e-12
-7.32154e-10
1.112e-10
9.16962e-12
-8.61134e-10
3.99826e-11
1.0126e-11
-8.01257e-10
1.27448e-11
8.46039e-12
-5.98823e-10
3.42617e-12
6.19047e-12
-3.93985e-10
1.04245e-12
3.82053e-12
-2.22042e-10
2.53094e-13
1.90577e-12
-1.08239e-10
7.81884e-14
4.92823e-11
6.13212e-12
6.25994e-10
5.02032e-11
1.7219e-11
8.84123e-10
7.76428e-11
4.45916e-11
1.24784e-09
1.37189e-10
6.37851e-11
5.29561e-10
8.04895e-11
3.73267e-10
5.36896e-12
4.76087e-11
2.1962e-10
1.07602e-12
8.16334e-12
1.10054e-10
2.05461e-13
7.98501e-13
-4.62191e-11
4.63612e-11
3.80661e-15
3.57908e-13
-3.29663e-11
2.44483e-10
-4.932e-14
-1.07603e-10
2.25921e-10
1.64713e-12
-1.21652e-10
2.19031e-10
3.80286e-12
-5.77749e-10
1.21035e-10
7.08728e-12
-7.15641e-10
4.88492e-11
8.55362e-12
-6.86766e-10
1.65607e-11
7.98825e-12
-5.12316e-10
4.8142e-12
6.16674e-12
-3.324e-10
1.45465e-12
3.95595e-12
-1.82805e-10
3.76294e-13
2.06353e-12
-8.68899e-11
1.07532e-13
9.04159e-13
-3.60643e-11
2.06299e-14
1.7779e-11
1.16631e-12
1.56466e-10
2.13654e-11
2.28122e-12
2.67153e-10
5.02514e-11
1.39928e-11
3.55929e-10
7.26237e-11
3.52305e-11
5.2594e-10
8.38129e-11
1.09328e-12
1.28519e-10
2.65887e-11
9.25974e-11
5.1138e-13
1.73452e-11
5.53017e-11
3.05066e-13
3.94096e-12
3.05842e-11
3.4346e-14
3.49999e-13
-1.37076e-11
1.33777e-11
-6.39836e-15
6.65917e-14
-2.11097e-12
1.02055e-10
9.11966e-14
-4.34435e-12
1.2022e-10
8.92093e-14
-1.72395e-12
9.69374e-11
1.21492e-13
-6.70077e-12
1.40383e-10
1.28601e-13
-3.90845e-12
1.1398e-10
9.09796e-14
-2.29492e-11
1.12994e-10
1.56954e-13
-9.11841e-12
1.623e-10
1.8135e-13
-6.53942e-12
1.32802e-10
1.34441e-13
-4.58741e-11
1.30092e-10
1.3383e-13
-4.54455e-12
1.09097e-10
1.95959e-13
-1.15178e-11
1.85562e-10
2.49428e-13
-9.71607e-12
1.53282e-10
1.94631e-13
-6.84277e-11
1.48554e-10
2.13153e-13
-1.25397e-11
1.28282e-10
1.60301e-13
-2.46642e-09
2.51536e-09
5.16631e-11
2.35359e-13
-1.38118e-11
2.09533e-10
3.33368e-13
-1.34896e-11
1.75007e-10
2.75541e-13
-8.93002e-11
1.67256e-10
3.34355e-13
-2.39769e-11
1.48951e-10
2.58143e-13
-2.20746e-09
6.03766e-11
1.12805e-12
2.1613e-09
1.49234e-10
4.65279e-13
-2.17385e-09
2.21008e-09
1.14242e-11
2.70376e-13
-1.59087e-11
2.33275e-10
4.30848e-13
-1.78119e-11
1.97316e-10
3.80306e-13
-1.072e-10
1.85717e-10
5.14073e-13
-3.91758e-11
1.7044e-10
4.38506e-13
-1.95331e-09
6.91745e-11
7.29594e-13
-1.94771e-09
1.34207e-11
6.7425e-12
1.7362e-09
2.46363e-10
3.17873e-12
2.1197e-09
4.14043e-11
6.53637e-13
-1.56884e-09
1.57504e-09
4.65606e-12
2.94638e-13
-1.77083e-11
2.55502e-10
5.34827e-13
-2.24857e-11
2.19182e-10
5.08716e-13
-1.21063e-10
2.03412e-10
7.69239e-13
-5.77989e-11
1.91693e-10
7.7917e-13
-1.70518e-09
7.86227e-11
1.17169e-12
-1.73027e-09
1.65896e-11
1.04878e-12
-1.42572e-09
5.29272e-12
1.53806e-11
1.40182e-09
1.94693e-10
1.73231e-11
2.05549e-09
1.12229e-10
4.94999e-12
1.46374e-09
1.61174e-11
1.0604e-12
-1.03618e-09
1.04001e-09
9.97483e-13
3.00875e-13
-1.91018e-11
2.74654e-10
6.31969e-13
-2.7163e-11
2.39303e-10
6.50844e-13
-1.30198e-10
2.19669e-10
1.10946e-12
-7.85669e-11
2.11301e-10
1.41428e-12
-1.46492e-09
8.87979e-11
1.92631e-12
-1.523e-09
2.11398e-11
1.70591e-12
-1.28917e-09
6.35756e-12
1.55816e-12
-9.41157e-10
1.30546e-12
1.28066e-11
7.77992e-11
1.2166e-09
3.47089e-11
1.95806e-09
1.10312e-10
3.00556e-11
1.41067e-09
4.38772e-11
7.85413e-12
9.64515e-10
3.68514e-12
1.23468e-12
-6.11635e-10
6.12849e-10
4.50282e-13
2.82546e-13
-1.99739e-11
2.8899e-10
7.02479e-13
-3.13769e-11
2.56135e-10
7.74736e-13
-1.34311e-10
2.33593e-10
1.51828e-12
-9.92398e-11
2.27614e-10
2.52011e-12
-1.23493e-09
9.97409e-11
3.20041e-12
-1.3267e-09
2.72368e-11
2.85776e-12
-1.15821e-09
8.04394e-12
2.3271e-12
-8.51489e-10
1.78873e-12
1.88158e-12
-5.5625e-10
5.86304e-13
2.49525e-11
4.35875e-11
1.8301e-09
1.89696e-11
5.67595e-11
1.07942e-09
6.43186e-11
1.36701e-09
5.63468e-11
4.65944e-11
9.30863e-10
1.25597e-11
9.7183e-12
5.66006e-10
1.64508e-12
1.37609e-12
-3.13905e-10
3.14873e-10
6.77959e-14
2.37022e-13
-2.02163e-11
2.96779e-10
7.22498e-13
-3.46242e-11
2.68022e-10
8.10359e-13
-1.33497e-10
2.4407e-10
1.92352e-12
-1.17138e-10
2.39098e-10
4.14443e-12
-1.01836e-09
1.11294e-10
5.21636e-12
-1.1411e-09
3.4902e-11
4.86907e-12
-1.03065e-09
1.05038e-11
3.67132e-12
-7.65247e-10
2.53071e-12
2.80048e-12
-5.0306e-10
7.82152e-13
1.94266e-12
-2.8443e-10
1.42762e-13
4.59367e-11
2.79758e-11
1.28165e-09
3.09758e-11
3.45144e-11
1.70617e-09
5.99075e-11
8.55714e-11
9.39608e-10
9.02787e-11
9.12986e-10
1.73383e-11
5.47963e-11
5.40861e-10
5.03926e-12
9.66261e-12
2.91502e-10
2.54683e-13
1.05852e-12
-1.38741e-10
1.39148e-10
3.86181e-14
1.69346e-13
2.96672e-10
6.72964e-13
-3.64636e-11
2.73466e-10
6.67275e-13
-1.28267e-10
2.49963e-10
2.18092e-12
-1.29729e-10
2.44712e-10
5.65469e-12
-8.19919e-10
1.22957e-10
7.65347e-12
-9.6604e-10
4.39611e-11
7.77281e-12
-9.04134e-10
1.38483e-11
5.93101e-12
-6.7914e-10
3.63413e-12
4.24333e-12
-4.49533e-10
1.08129e-12
2.73195e-12
-2.54775e-10
2.42247e-13
1.44014e-12
-1.2467e-10
7.01532e-14
5.22536e-11
7.9591e-12
8.22536e-10
5.03127e-11
2.22035e-11
1.14819e-09
7.64175e-11
5.92822e-11
1.55573e-09
1.45482e-10
1.03318e-10
7.31724e-10
8.52063e-11
4.89931e-10
6.6113e-12
4.47868e-11
2.7092e-10
8.61768e-13
6.69786e-12
1.27379e-10
1.61563e-13
6.39397e-13
-5.34157e-11
5.36386e-11
-1.17073e-14
5.46753e-13
-3.66359e-11
2.7141e-10
3.2394e-13
-1.19392e-10
2.50298e-10
2.11126e-12
-1.35598e-10
2.4408e-10
5.40161e-12
-6.46987e-10
1.33738e-10
8.70937e-12
-8.05483e-10
5.3927e-11
9.94679e-12
-7.80742e-10
1.80745e-11
8.45368e-12
-5.91714e-10
5.17105e-12
6.15214e-12
-3.92073e-10
1.52937e-12
3.82103e-12
-2.21243e-10
3.78781e-13
1.9497e-12
-1.07979e-10
1.06947e-13
8.42725e-13
-4.60904e-11
1.09363e-14
3.42131e-11
2.62729e-12
3.60337e-10
4.03209e-11
5.3105e-12
6.18947e-10
9.02094e-11
3.18392e-11
8.56918e-10
1.30756e-10
7.95018e-11
1.17399e-09
1.78029e-10
6.01458e-11
3.75198e-10
4.72164e-11
2.03593e-10
7.6777e-13
2.38856e-11
1.04177e-10
4.12093e-13
3.59862e-12
4.69238e-11
-1.47653e-14
3.21547e-13
-1.80349e-11
1.80923e-11
-2.52715e-14
3.55665e-13
-3.51004e-11
2.61362e-10
-6.52598e-14
-1.07754e-10
2.44699e-10
1.65941e-12
-1.34073e-10
2.36683e-10
2.59447e-12
-5.03938e-10
1.42625e-10
5.93689e-12
-6.64546e-10
6.40035e-11
7.46771e-12
-6.68461e-10
2.30767e-11
7.31296e-12
-5.10212e-10
7.14363e-12
5.76462e-12
-3.35511e-10
2.1607e-12
3.75718e-12
-1.85677e-10
5.68555e-13
1.99767e-12
-8.8666e-11
1.54654e-13
8.99539e-13
-3.68881e-11
3.17086e-14
3.58586e-13
-1.40411e-11
-4.43471e-15
9.53191e-12
1.17984e-13
8.41138e-11
1.33401e-11
9.53698e-13
1.44453e-10
3.45699e-11
4.33078e-12
2.42245e-10
7.28467e-11
2.14945e-11
2.96818e-10
8.85434e-11
4.9716e-11
3.88774e-10
6.23981e-11
-2.26682e-12
6.83878e-11
1.27484e-11
4.2884e-11
1.8066e-13
7.45848e-12
2.34238e-11
7.00628e-15
1.55896e-12
1.1895e-11
-4.19763e-14
1.32962e-13
-5.03641e-12
4.91885e-12
-2.18547e-14
6.01634e-14
-2.25144e-12
1.08889e-10
8.41691e-14
-4.65535e-12
1.28875e-10
7.69508e-14
-1.85022e-12
1.03917e-10
1.14757e-13
-7.21228e-12
1.51152e-10
1.12741e-13
-4.21407e-12
1.22726e-10
7.66079e-14
-2.47073e-11
1.21659e-10
1.52028e-13
-9.85502e-12
1.75462e-10
1.61791e-13
-7.08234e-12
1.43577e-10
1.14975e-13
-4.95924e-11
1.40643e-10
1.05232e-13
-4.91494e-12
1.17938e-10
1.95021e-13
-1.24975e-11
2.01368e-10
2.26836e-13
-1.05649e-11
1.66348e-10
1.6912e-13
-7.42612e-11
1.61214e-10
1.69237e-13
-1.36158e-11
1.39207e-10
1.10248e-13
-2.67634e-09
2.72943e-09
5.60539e-11
2.41362e-13
-1.50414e-11
2.28176e-10
3.09657e-13
-1.47238e-11
1.90593e-10
2.43353e-13
-9.72675e-11
1.82154e-10
2.68861e-13
-2.61338e-11
1.62213e-10
1.77625e-13
-2.40379e-09
6.57399e-11
7.63287e-13
2.35324e-09
1.62487e-10
3.19837e-13
-2.36717e-09
2.40658e-09
1.23931e-11
2.86673e-13
-1.7383e-11
2.54829e-10
4.09935e-13
-1.9507e-11
2.15571e-10
3.41684e-13
-1.17163e-10
2.02909e-10
4.20325e-13
-4.28513e-11
1.86224e-10
2.9914e-13
-2.13392e-09
7.55598e-11
5.07847e-13
-2.12785e-09
1.46006e-11
4.47092e-12
1.89475e-09
2.68829e-10
2.19771e-12
2.31535e-09
4.49429e-11
4.19723e-13
-1.71227e-09
1.71893e-09
5.00466e-12
3.2474e-13
-1.94102e-11
2.79936e-10
5.23242e-13
-2.47028e-11
2.40177e-10
4.66173e-13
-1.3276e-10
2.22918e-10
6.43054e-13
-6.34457e-11
2.10113e-10
5.23981e-13
-1.86876e-09
8.61357e-11
8.26237e-13
-1.89629e-09
1.80967e-11
6.84529e-13
-1.56075e-09
5.69897e-12
9.98115e-12
1.52896e-09
2.12642e-10
1.20108e-11
2.24958e-09
1.21791e-10
3.21094e-12
1.60102e-09
1.71663e-11
7.26949e-13
-1.1331e-09
1.13707e-09
1.01314e-12
3.47708e-13
-2.09956e-11
3.01719e-10
6.39068e-13
-2.99223e-11
2.62931e-10
6.12883e-13
-1.4324e-10
2.41398e-10
9.54489e-13
-8.6531e-11
2.32299e-10
9.382e-13
-1.61055e-09
9.75339e-11
1.37159e-12
-1.67421e-09
2.31142e-11
1.12749e-12
-1.41541e-09
6.86317e-12
1.06781e-12
-1.03174e-09
1.34296e-12
8.13803e-12
8.48791e-11
1.32161e-09
2.4189e-11
2.14164e-09
1.19054e-10
1.9662e-11
1.54061e-09
4.57503e-11
5.37154e-12
1.05503e-09
3.5806e-12
7.52058e-13
-6.6931e-10
6.70352e-10
4.38297e-13
3.47462e-13
-2.20052e-11
3.1822e-10
7.39323e-13
-3.46461e-11
2.821e-10
7.63182e-13
-1.48219e-10
2.57335e-10
1.35722e-12
-1.09675e-10
2.50938e-10
1.67436e-12
-1.36256e-09
1.09785e-10
2.29142e-12
-1.46313e-09
2.98375e-11
1.90468e-12
-1.27578e-09
8.7085e-12
1.57511e-12
-9.35914e-10
1.86715e-12
1.20778e-12