/*--------------------------------*- C++ -*----------------------------------*\
  =========                 |
  \\      /  F ield         | OpenFOAM: The Open Source CFD Toolbox
   \\    /   O peration     | Website:  https://openfoam.org
    \\  /    A nd           | Version:  7
     \\/     M anipulation  |
\*---------------------------------------------------------------------------*/
FoamFile
{
    version     2.0;
    format      ascii;
    class       volVectorField;
    location    "100";
    object      U;
}
// * * * * * * * * * * * * * * * * * * * * * * * * * * * * * * * * * * * * * //

dimensions      [0 1 -1 0 0 0 0];

internalField   nonuniform List<vector> 
43144
(
(0.628496 5.47171e-06 -0.000126445)
(0.628513 3.05479e-05 -0.000127343)
(0.628497 5.32914e-06 -0.000405448)
(0.651811 0.000104768 -0.000129457)
(0.628536 6.77608e-05 -0.000127834)
(0.628514 3.03262e-05 -0.000408296)
(0.651866 0.000260709 -0.000127579)
(0.628495 5.01517e-06 -0.000738326)
(0.651749 0.000105072 -0.000441175)
(0.649404 0.000303365 -0.00217377)
(0.628569 0.000104493 -0.000128118)
(0.628537 6.76456e-05 -0.000409847)
(0.651944 0.00036775 -0.000126777)
(0.628511 2.98375e-05 -0.000743344)
(0.651802 0.000261149 -0.00043518)
(0.64968 0.00074272 -0.00221902)
(0.628485 4.4302e-06 -0.00113761)
(0.651615 0.000105746 -0.000886711)
(0.649427 0.000295978 -0.00689615)
(0.954694 0.0013444 -0.00038784)
(0.628611 0.000143054 -0.000128372)
(0.62857 0.00010442 -0.000410773)
(0.652031 0.000462939 -0.000126965)
(0.628534 6.73901e-05 -0.000746072)
(0.651879 0.000367859 -0.000432734)
(0.649914 0.000909057 -0.00224221)
(0.628501 2.8925e-05 -0.00114483)
(0.651665 0.000262108 -0.000876156)
(0.649696 0.000731599 -0.00703531)
(0.963098 0.00236068 -0.000599071)
(0.628461 3.47143e-06 -0.00160624)
(0.651361 0.000106989 -0.00149886)
(0.649441 0.000280644 -0.0122932)
(0.949898 0.00129449 -0.00168282)
(0.683976 0.072945 -0.772309)
(0.628659 0.000178714 -0.000128525)
(0.628611 0.000143 -0.000411592)
(0.652123 0.000525161 -0.000127161)
(0.628567 0.000104255 -0.000747784)
(0.651966 0.000462902 -0.000433301)
(0.650219 0.000951137 -0.0022574)
(0.628524 6.69057e-05 -0.00114882)
(0.65174 0.000368086 -0.000872149)
(0.64993 0.000903358 -0.00710767)
(0.968005 0.00236823 -0.000622367)
(0.628477 2.74169e-05 -0.00161525)
(0.651406 0.000263853 -0.00148398)
(0.649702 0.000708164 -0.0125238)
(0.957995 0.0023282 -0.00206039)
(0.709699 0.0570446 -0.828395)
(0.628412 2.09722e-06 -0.00214387)
(0.650921 0.000108966 -0.00232946)
(0.649399 0.00025407 -0.0184208)
(0.939487 0.00122569 -0.00457718)
(0.703216 0.0459688 -0.772625)
(0.589532 0.126504 -0.795526)
(0.131569 0.0680277 -0.568736)
(0.628714 0.000210335 -0.000128626)
(0.62866 0.00017868 -0.000412097)
(0.652214 0.000564847 -0.00012769)
(0.628608 0.000142882 -0.000749277)
(0.652057 0.000525091 -0.000433949)
(0.650527 0.000939988 -0.00226707)
(0.628557 0.000103935 -0.00115143)
(0.651826 0.000462826 -0.00087313)
(0.650234 0.000947776 -0.00715554)
(0.970844 0.00248325 -0.000627381)
(0.6285 6.60806e-05 -0.00162042)
(0.651478 0.000368471 -0.00147867)
(0.649936 0.000891027 -0.0126479)
(0.962749 0.00236235 -0.00209828)
(0.714239 0.0334829 -0.84479)
(0.628429 2.52152e-05 -0.00215365)
(0.650958 0.000266584 -0.0023117)
(0.649652 0.000666838 -0.0187295)
(0.946827 0.0022839 -0.00497188)
(0.715028 0.0462097 -0.821109)
(0.6681 0.0903368 -0.893374)
(0.135367 0.050211 -0.617768)
(0.628322 4.07671e-07 -0.00274691)
(0.650214 0.000111637 -0.00343058)
(0.649218 0.000214058 -0.0250733)
(0.923154 0.0011623 -0.00926811)
(0.709537 0.0300179 -0.755742)
(0.13967 0.0449243 -0.568383)
(0.39378 0.090402 -0.616605)
(0.12512 0.110345 -0.591399)
(0.0809307 0.0529138 -0.335714)
(0.628771 0.000235847 -0.000128675)
(0.628714 0.000210311 -0.000412436)
(0.652301 0.000579809 -0.000128261)
(0.628657 0.000178608 -0.000750233)
(0.652148 0.000564742 -0.000435628)
(0.650836 0.00089624 -0.00227315)
(0.628598 0.000142655 -0.00115369)
(0.651916 0.00052494 -0.00087442)
(0.650543 0.00093804 -0.00718616)
(0.972555 0.00233917 -0.000624296)
(0.628533 0.000103379 -0.00162396)
(0.651561 0.000462662 -0.00148029)
(0.65024 0.000940379 -0.0127318)
(0.965553 0.00248272 -0.0021134)
(0.715482 0.0193316 -0.848207)
(0.628451 6.48123e-05 -0.00215967)
(0.651025 0.000368997 -0.00230583)
(0.649885 0.000868422 -0.0189048)
(0.951278 0.00235607 -0.00501228)
(0.717668 0.0274232 -0.837945)
(0.67882 0.0541071 -0.908353)
(0.132693 0.0306195 -0.630113)
(0.628339 2.24165e-05 -0.00275598)
(0.65024 0.000270205 -0.00341284)
(0.649465 0.00060306 -0.0254286)
(0.929402 0.00224344 -0.00957716)
(0.714113 0.0378361 -0.79684)
(0.139348 0.0418798 -0.609608)
(0.540728 0.128648 -0.780023)
(0.143676 0.0731774 -0.677823)
(0.085803 0.0444133 -0.376116)
(0.628169 -1.31826e-06 -0.00340578)
(0.649145 0.000114577 -0.00483564)
(0.648772 0.000161487 -0.0319598)
(0.901035 0.00111719 -0.0160248)
(0.707127 0.0208303 -0.731079)
(0.152866 0.0297613 -0.561279)
(0.0800351 0.0370763 -0.342063)
(0.240985 0.0634967 -0.445868)
(0.10037 0.0763821 -0.547185)
(0.0905046 0.080775 -0.335123)
(0.0209473 0.0345598 -0.189315)
(0.628829 0.000254157 -0.000128688)
(0.628771 0.000235831 -0.00041261)
(0.652382 0.000574861 -0.00012887)
(0.628711 0.000210263 -0.00075089)
(0.652235 0.000579704 -0.000437443)
(0.651123 0.000836248 -0.00227692)
(0.628647 0.000178468 -0.00115519)
(0.652007 0.00056452 -0.000877461)
(0.650852 0.000895119 -0.00720549)
(0.973621 0.00213296 -0.000624338)
(0.628574 0.00014226 -0.00162702)
(0.651651 0.00052463 -0.00148259)
(0.650548 0.000933709 -0.012786)
(0.967252 0.00234061 -0.00210717)
(0.716166 0.011524 -0.849377)
(0.628484 0.000102501 -0.00216399)
(0.651106 0.000462293 -0.00230857)
(0.650188 0.000926525 -0.0190271)
(0.954011 0.00248458 -0.00504204)
(0.718816 0.0161801 -0.842205)
(0.680129 0.0307465 -0.909856)
(0.129823 0.0188246 -0.631348)
(0.628362 6.30666e-05 -0.00276224)
(0.650301 0.000369487 -0.00340778)
(0.649697 0.000831478 -0.0256472)
(0.933418 0.00235394 -0.00961125)
(0.715606 0.0232941 -0.812726)
(0.136449 0.0256223 -0.622475)
(0.570077 0.0905233 -0.792999)
(0.141985 0.0459697 -0.688506)
(0.0846673 0.0296844 -0.387116)
(0.628186 1.93912e-05 -0.00341268)
(0.64916 0.000274032 -0.0048217)
(0.649013 0.000516174 -0.0323159)
(0.906013 0.00221534 -0.0162384)
(0.708582 0.0310218 -0.76482)
(0.150317 0.0348484 -0.595636)
(0.0813429 0.0370161 -0.37616)
(0.419197 0.138118 -0.664317)
(0.1458 0.0934359 -0.705705)
(0.107223 0.0636789 -0.401775)
(0.0209179 0.0306271 -0.217288)
(0.627922 -2.68079e-06 -0.00410087)
(0.647621 0.000116931 -0.00654185)
(0.647885 0.000101545 -0.0387537)
(0.873697 0.00108915 -0.0250233)
(0.699259 0.0150846 -0.699798)
(0.170779 0.020419 -0.549349)
(0.0828245 0.0254886 -0.345876)
(0.0219007 0.0251715 -0.193612)
(0.170955 0.0507042 -0.365758)
(0.0775335 0.0493581 -0.49071)
(0.103209 0.0545312 -0.290304)
(0.0210888 0.049977 -0.186964)
(0.0124643 0.0195569 -0.0974816)
(0.628885 0.000264518 -0.000128675)
(0.628829 0.000254146 -0.000412669)
(0.652456 0.000553178 -0.000129432)
(0.628768 0.000235804 -0.000751255)
(0.652316 0.000574763 -0.000439376)
(0.651378 0.000766864 -0.00227919)
(0.628701 0.000210176 -0.00115624)
(0.652094 0.000579486 -0.000880753)
(0.651139 0.00083561 -0.00721755)
(0.974286 0.00185677 -0.00062495)
(0.628623 0.000178219 -0.00162911)
(0.651741 0.000564087 -0.00148736)
(0.650858 0.000892597 -0.0128206)
(0.968314 0.00213456 -0.00210935)
(0.716695 0.0071241 -0.849842)
(0.628525 0.000141628 -0.00216775)
(0.651193 0.000524011 -0.00231251)
(0.650497 0.000925511 -0.0191072)
(0.955684 0.0023457 -0.00503937)
(0.719585 0.00974838 -0.843819)
(0.680359 0.0181103 -0.910023)
(0.127872 0.0125451 -0.631625)
(0.628395 0.000101247 -0.00276699)
(0.650377 0.000461465 -0.00341248)
(0.649999 0.000903234 -0.0258059)
(0.936029 0.00249083 -0.0096622)
(0.716635 0.0142258 -0.817627)
(0.133949 0.0159692 -0.624431)
(0.573417 0.0555605 -0.788586)
(0.137999 0.0281845 -0.687946)
(0.0827863 0.0186755 -0.388141)
(0.628209 6.09476e-05 -0.0034184)
(0.649213 0.000369458 -0.00481931)
(0.649245 0.000776947 -0.0325614)
(0.909491 0.00235651 -0.0162748)
(0.709479 0.0202629 -0.779199)
(0.14739 0.0219348 -0.607947)
(0.0797872 0.024434 -0.387311)
(0.46914 0.112777 -0.694922)
(0.151339 0.0699183 -0.716699)
(0.107513 0.0445282 -0.412556)
(0.0189606 0.0213988 -0.224471)
(0.62794 1.67384e-05 -0.00410466)
(0.647624 0.000276696 -0.00653508)
(0.648121 0.000411764 -0.0390639)
(0.877392 0.00219662 -0.0251844)
(0.699638 0.025044 -0.726496)
(0.167445 0.028883 -0.577183)
(0.0819785 0.0305236 -0.374348)
(0.0210089 0.0256662 -0.217286)
(0.354959 0.135136 -0.604001)
(0.140603 0.092062 -0.721991)
(0.144974 0.0818612 -0.405271)
(0.0238162 0.0429394 -0.231446)
(0.0133883 0.0182324 -0.113947)
(0.627551 -3.30217e-06 -0.00479842)
(0.64556 0.000117638 -0.00849385)
(0.64634 4.29466e-05 -0.0450971)
(0.842029 0.001067 -0.0361004)
(0.68792 0.0109129 -0.660848)
(0.192893 0.0146214 -0.53419)
(0.0894159 0.0176292 -0.347612)
(0.0241814 0.0177909 -0.196747)
(0.0125211 0.0146015 -0.100187)
(0.0668079 0.0388169 -0.458256)
(0.130273 0.0422161 -0.320528)
(0.106031 0.0357343 -0.246107)
(0.0206756 0.0298911 -0.157424)
(0.0134013 0.0273555 -0.0951395)
(0.00343034 0.00955031 -0.04509)
(0.628938 0.00026692 -0.000128652)
(0.628886 0.000264522 -0.000412642)
(0.652521 0.0005191 -0.000129921)
(0.628826 0.000254131 -0.00075141)
(0.65239 0.000553098 -0.000441159)
(0.651592 0.00069227 -0.00228048)
(0.628758 0.000235756 -0.00115686)
(0.652175 0.000574564 -0.000884229)
(0.651393 0.000766512 -0.00722483)
(0.974699 0.00157014 -0.000626243)
(0.628677 0.000210021 -0.00163062)
(0.651827 0.000579066 -0.0014925)
(0.651145 0.000834157 -0.0128423)
(0.968975 0.00185837 -0.00211225)
(0.71711 0.00452563 -0.850062)
(0.628574 0.000177811 -0.00217042)
(0.651282 0.000563279 -0.00231953)
(0.650806 0.000887782 -0.0191587)
(0.956736 0.00213961 -0.00504816)
(0.720166 0.00608071 -0.844505)
(0.68063 0.0110487 -0.910023)
(0.126699 0.00874188 -0.631858)
(0.628436 0.000140707 -0.00277121)
(0.650461 0.000522802 -0.00341899)
(0.650307 0.000911536 -0.0259119)
(0.937657 0.00235602 -0.00967217)
(0.717418 0.00870367 -0.819599)
(0.132333 0.010689 -0.625059)
(0.572742 0.0332122 -0.784854)
(0.134993 0.0187346 -0.687351)
(0.0809574 0.012037 -0.387766)
(0.628242 9.9649e-05 -0.00342304)
(0.649282 0.000459683 -0.00482716)
(0.649544 0.000867592 -0.0327487)
(0.911914 0.00250029 -0.0163571)
(0.710388 0.0129314 -0.784576)
(0.145177 0.0140655 -0.610566)
(0.0780617 0.0153662 -0.388877)
(0.477252 0.0771185 -0.687797)
(0.146445 0.0473417 -0.711268)
(0.105183 0.0284519 -0.412371)
(0.0168926 0.0140402 -0.224733)
(0.627962 5.87347e-05 -0.00410907)
(0.647667 0.000368021 -0.00653727)
(0.64835 0.000704098 -0.0393137)
(0.880268 0.00235781 -0.0252443)
(0.700255 0.0176621 -0.739123)
(0.164669 0.0191709 -0.588398)
(0.0801989 0.0203059 -0.384951)
(0.0191612 0.0174769 -0.224471)
(0.416121 0.119807 -0.651333)
(0.156232 0.080711 -0.753676)
(0.152622 0.0681789 -0.420021)
(0.0216358 0.0318408 -0.238826)
(0.0127875 0.0135633 -0.118217)
(0.627568 1.51023e-05 -0.00479893)
(0.645554 0.000276415 -0.00849594)
(0.646568 0.000301613 -0.0453288)
(0.844569 0.00217314 -0.0362668)
(0.688029 0.0195725 -0.680947)
(0.189689 0.0236575 -0.556052)
(0.0875709 0.0249631 -0.370693)
(0.0227759 0.021127 -0.216536)
(0.0126827 0.0153597 -0.114201)
(0.136427 0.0894991 -0.726403)
(0.308626 0.129716 -0.562451)
(0.169302 0.0816294 -0.407497)
(0.0298921 0.0537873 -0.230222)
(0.0165373 0.0251371 -0.120581)
(0.00293878 0.00925949 -0.0534201)
(0.627027 -2.97503e-06 -0.00544891)
(0.642922 0.000115836 -0.0105729)
(0.643914 -5.02603e-06 -0.0506058)
(0.807211 0.00103559 -0.0486283)
(0.674065 0.00759081 -0.614139)
(0.218511 0.0106898 -0.515635)
(0.0995654 0.0124676 -0.347921)
(0.028041 0.0124321 -0.198923)
(0.0132126 0.0105252 -0.102385)
(0.00372116 0.00724687 -0.0464139)
(0.103524 0.0276219 -0.219705)
(0.0597655 0.0328113 -0.437595)
(0.0857147 0.0323764 -0.269787)
(0.0193994 0.0176639 -0.129412)
(0.0144177 0.0152292 -0.0778053)
(0.00314949 0.0130579 -0.0438212)
(0.00185606 0.00408103 -0.0187637)
(0.628987 0.000261818 -0.000128603)
(0.628939 0.000266913 -0.00041258)
(0.652575 0.000476374 -0.000130312)
(0.628883 0.000264527 -0.000751407)
(0.652455 0.00051903 -0.000442704)
(0.651767 0.000615369 -0.00228117)
(0.628816 0.00025411 -0.00115716)
(0.652248 0.000552938 -0.000887424)
(0.651608 0.000692084 -0.00722902)
(0.97495 0.00129427 -0.000627434)
(0.628734 0.000235672 -0.00163155)
(0.651908 0.000574189 -0.00149786)
(0.651399 0.000765696 -0.0128555)
(0.969387 0.00157158 -0.00211661)
(0.717411 0.00296135 -0.850172)
(0.628628 0.000209762 -0.00217239)
(0.651367 0.000578297 -0.00232702)
(0.651093 0.000831368 -0.0191913)
(0.957393 0.0018631 -0.00505633)
(0.720592 0.00389003 -0.844841)
(0.680968 0.0069369 -0.910018)
(0.12603 0.00616219 -0.63208)
(0.628484 0.000177197 -0.00277434)
(0.650548 0.000561825 -0.00342901)
(0.650616 0.000879506 -0.025981)
(0.938691 0.00214938 -0.00969433)
(0.718009 0.00548797 -0.820468)
(0.131372 0.00747719 -0.625433)
(0.572315 0.0201636 -0.782988)
(0.133147 0.0129881 -0.687262)
(0.0793657 0.00789357 -0.387282)
(0.628282 0.000139491 -0.00342735)
(0.649362 0.000520512 -0.00483745)
(0.64985 0.000889722 -0.0328776)
(0.91347 0.00237066 -0.0163927)
(0.711141 0.00807625 -0.786859)
(0.143801 0.00949767 -0.611535)
(0.0765151 0.0098947 -0.388852)
(0.47588 0.0480446 -0.677085)
(0.14129 0.0322242 -0.707425)
(0.102513 0.0184556 -0.411135)
(0.0150325 0.00928581 -0.223991)
(0.627994 9.78531e-05 -0.00411302)
(0.647729 0.000456141 -0.00654956)
(0.648642 0.000817758 -0.0395162)
(0.882433 0.00250676 -0.0253716)
(0.70105 0.011858 -0.744762)
(0.162698 0.0128178 -0.591606)
(0.0785989 0.0129396 -0.38704)
(0.0174039 0.0113155 -0.225056)
(0.428124 0.0868519 -0.646031)
(0.153011 0.0616999 -0.747951)
(0.150797 0.0483285 -0.417516)
(0.018722 0.0215347 -0.238398)
(0.0118561 0.00938944 -0.118382)
(0.62759 5.68422e-05 -0.00480154)
(0.645587 0.000363951 -0.00850406)
(0.646791 0.000616246 -0.0455587)
(0.846825 0.00234537 -0.0363747)
(0.68851 0.015119 -0.691675)
(0.187207 0.016893 -0.565924)
(0.0857439 0.0171712 -0.380341)
(0.0210558 0.0142258 -0.223336)
(0.0120099 0.0110465 -0.118426)
(0.157765 0.0842917 -0.775823)
(0.376357 0.122893 -0.621934)
(0.187022 0.0796835 -0.443354)
(0.0293566 0.0482752 -0.241257)
(0.0161508 0.0199893 -0.125109)
(0.00214688 0.00721278 -0.055597)
(0.627044 1.49312e-05 -0.00544667)
(0.64291 0.000271609 -0.0105835)
(0.644129 0.000200498 -0.0507489)
(0.808816 0.00212383 -0.048845)
(0.674148 0.0146172 -0.628348)
(0.215892 0.0189545 -0.532105)
(0.0975041 0.0201878 -0.366067)
(0.0264497 0.0171457 -0.214946)
(0.0128394 0.0126491 -0.114156)
(0.00318069 0.00783888 -0.053533)
(0.176616 0.0783595 -0.402695)
(0.132192 0.0872777 -0.726392)
(0.246303 0.118536 -0.509623)
(0.0351592 0.0517132 -0.226871)
(0.0222606 0.0308554 -0.117444)
(0.00284144 0.0126076 -0.0564628)
(0.00188067 0.00402805 -0.0223675)
(0.62634 -1.73369e-06 -0.00599068)
(0.639725 0.000111226 -0.0125995)
(0.640433 -3.61381e-05 -0.0548965)
(0.770726 0.000981724 -0.0615321)
(0.658136 0.00495938 -0.560668)
(0.246656 0.00774394 -0.493298)
(0.112821 0.00896011 -0.346363)
(0.0336551 0.00874477 -0.200538)
(0.0147004 0.00742802 -0.104142)
(0.00424853 0.00530017 -0.0475227)
(0.00191111 0.00312059 -0.0193459)
(0.0185084 0.0129384 -0.115165)
(0.10064 0.0231859 -0.203663)
(0.050719 0.0256704 -0.410314)
(0.0388784 0.0210378 -0.20216)
(0.0143853 0.00861814 -0.0614061)
(0.00222338 0.0068292 -0.0354362)
(0.00189168 0.00552181 -0.0181658)
(0.000461875 0.00157362 -0.00713862)
(0.629029 0.000250145 -0.000128556)
(0.628987 0.000261796 -0.000412435)
(0.65262 0.000428586 -0.000130636)
(0.628936 0.000266909 -0.00075133)
(0.652509 0.000476345 -0.000443939)
(0.651902 0.000538506 -0.00228148)
(0.628872 0.000264529 -0.00115721)
(0.652313 0.000518904 -0.000890184)
(0.651782 0.000615285 -0.00723127)
(0.975096 0.00104744 -0.000628364)
(0.628791 0.000254072 -0.00163204)
(0.651981 0.000552641 -0.00150276)
(0.651614 0.000691644 -0.0128632)
(0.969637 0.00129552 -0.00212036)
(0.717607 0.00198359 -0.850229)
(0.628684 0.000235528 -0.00217366)
(0.651448 0.000573514 -0.00233469)
(0.651347 0.000764121 -0.0192112)
(0.957802 0.00157572 -0.00506566)
(0.720886 0.00256135 -0.845016)
(0.681283 0.004489 -0.910015)
(0.125632 0.00433634 -0.632236)
(0.628538 0.000209362 -0.00277672)
(0.650632 0.000576938 -0.00343952)
(0.650902 0.000826558 -0.0260249)
(0.93934 0.00187209 -0.0097127)
(0.718434 0.00353744 -0.820894)
(0.130823 0.0052874 -0.625718)
(0.57239 0.0125625 -0.782126)
(0.132096 0.00911014 -0.68736)
(0.0780551 0.00519119 -0.386872)
(0.62833 0.000176352 -0.00343073)
(0.649445 0.000559286 -0.00485139)
(0.650157 0.000866459 -0.032963)
(0.914474 0.00216322 -0.0164381)
(0.711719 0.00515937 -0.787901)
(0.142988 0.00667898 -0.612051)
(0.0751992 0.00650012 -0.388543)
(0.474392 0.0295637 -0.67036)
(0.137901 0.0223195 -0.705883)
(0.1001 0.0120983 -0.410202)
(0.0134868 0.00626777 -0.223264)
(0.628034 0.000138043 -0.004117)
(0.647802 0.000516396 -0.00656484)
(0.648945 0.000858351 -0.0396614)
(0.883881 0.00238461 -0.0254494)
(0.70175 0.00760655 -0.7473)
(0.161495 0.0087793 -0.592903)
(0.0772598 0.00836955 -0.387369)
(0.0158947 0.00741098 -0.224549)
(0.426614 0.0554096 -0.631835)
(0.146633 0.0440634 -0.739659)
(0.146719 0.0325404 -0.413718)
(0.015895 0.0144905 -0.237066)
(0.0109059 0.00635476 -0.117876)
(0.627621 9.61189e-05 -0.00480432)
(0.645639 0.000449777 -0.00852177)
(0.647074 0.000754111 -0.0457596)
(0.848671 0.00249887 -0.0365606)
(0.689196 0.0107394 -0.697292)
(0.185465 0.0118906 -0.569582)
(0.0842496 0.0112792 -0.382917)
(0.0195508 0.00917098 -0.224258)
(0.0111897 0.007485 -0.118742)
(0.156325 0.0676949 -0.772986)
(0.391723 0.093076 -0.618727)
(0.188024 0.0635321 -0.444257)
(0.0254211 0.0366851 -0.239924)
(0.0149271 0.0143725 -0.124985)
(0.00139223 0.00526327 -0.0556906)
(0.627065 5.56881e-05 -0.00544737)
(0.642933 0.000355994 -0.0105978)
(0.644342 0.000521055 -0.0509398)
(0.810485 0.00230279 -0.0490181)
(0.674545 0.0125251 -0.637103)
(0.213802 0.0147708 -0.540516)
(0.0957647 0.0147305 -0.37456)
(0.024877 0.0116923 -0.221116)
(0.0121235 0.00887035 -0.11814)
(0.0025043 0.00588009 -0.0556687)
(0.199906 0.0831227 -0.454833)
(0.157659 0.0864825 -0.789177)
(0.319634 0.123759 -0.583576)
(0.0385617 0.0557418 -0.252963)
(0.0234439 0.029901 -0.124441)
(0.00176747 0.0105305 -0.0588216)
(0.00165043 0.00321776 -0.0233035)
(0.626356 1.63079e-05 -0.00598658)
(0.639711 0.000261549 -0.0126164)
(0.640629 0.000121023 -0.054962)
(0.771649 0.00202836 -0.061815)
(0.658235 0.0103444 -0.570018)
(0.244759 0.0147373 -0.505066)
(0.110967 0.0160182 -0.360076)
(0.0321319 0.0137335 -0.213101)
(0.0140324 0.0102164 -0.113707)
(0.00369738 0.0064712 -0.053525)
(0.00184199 0.0034195 -0.0224359)
(0.0377516 0.0479229 -0.223295)
(0.17936 0.0751732 -0.396804)
(0.12429 0.0825002 -0.720341)
(0.160863 0.0954699 -0.430152)
(0.0263812 0.0286007 -0.111334)
(0.00223275 0.015191 -0.0546089)
(0.00218161 0.00544768 -0.0235779)
(0.000251726 0.00158022 -0.00854417)
(0.636069 0.000104174 -0.0143555)
(0.635846 -4.92953e-05 -0.0576366)
(0.734273 0.000898946 -0.073445)
(0.640487 0.00300423 -0.502393)
(0.275986 0.00545711 -0.466929)
(0.128689 0.00640176 -0.342253)
(0.041116 0.00621819 -0.201412)
(0.0171083 0.00521873 -0.105663)
(0.00507648 0.00377827 -0.0484381)
(0.00206696 0.00229816 -0.0198437)
(0.000521751 0.0012083 -0.00736148)
(0.014067 0.00608285 -0.052548)
(0.0180072 0.0106062 -0.107771)
(0.0954257 0.0183267 -0.184774)
(0.0386883 0.0164246 -0.361543)
(0.0072306 0.0106279 -0.127678)
(0.000946116 0.00368246 -0.0275843)
(0.00176566 0.00281255 -0.0145439)
(0.000381073 0.00211691 -0.00690704)
(7.97431e-05 0.000578131 -0.00259598)
(0.629065 0.00023331 -0.000128509)
(0.62903 0.000250136 -0.000412296)
(0.652654 0.00037867 -0.000130858)
(0.628984 0.000261781 -0.000751106)
(0.652554 0.000428573 -0.000444952)
(0.652004 0.000463828 -0.00228153)
(0.628925 0.000266912 -0.00115714)
(0.652368 0.000476277 -0.000892381)
(0.651918 0.000538461 -0.0072323)
(0.975171 0.000835628 -0.000628943)
(0.628848 0.000264527 -0.0016322)
(0.652046 0.000518681 -0.00150697)
(0.651788 0.000615069 -0.0128673)
(0.969783 0.0010485 -0.00212317)
(0.717718 0.00135252 -0.850256)
(0.628742 0.000254005 -0.0021744)
(0.651521 0.00055211 -0.00234165)
(0.651562 0.00069079 -0.0192228)
(0.958051 0.00129907 -0.00507315)
(0.721068 0.00172554 -0.845113)
(0.681526 0.00297505 -0.910015)
(0.125371 0.00302281 -0.632319)
(0.628594 0.000235296 -0.00277832)
(0.650711 0.000572343 -0.00345006)
(0.651155 0.000761405 -0.0260518)
(0.939745 0.00158351 -0.00973045)
(0.718718 0.00234364 -0.821117)
(0.130496 0.00373186 -0.625907)
(0.572682 0.00806792 -0.781747)
(0.131477 0.00638125 -0.68746)
(0.0770087 0.00339502 -0.386512)
(0.628383 0.000208793 -0.0034334)
(0.649528 0.000574618 -0.00486575)
(0.650442 0.000818956 -0.0330177)
(0.915109 0.00188499 -0.0164743)
(0.712132 0.0033542 -0.788412)
(0.142524 0.00474011 -0.612399)
(0.0741213 0.00428562 -0.388223)
(0.47394 0.018486 -0.666705)
(0.135951 0.0155589 -0.705338)
(0.0980968 0.00793652 -0.409553)
(0.0122716 0.00428065 -0.222711)
(0.628081 0.000175289 -0.00412036)
(0.647882 0.000555018 -0.00658365)
(0.649249 0.000847432 -0.0397602)
(0.884837 0.00217744 -0.0255308)
(0.702299 0.00494028 -0.748508)
(0.160785 0.00621845 -0.593569)
(0.0761446 0.00552435 -0.387244)
(0.0146667 0.00498741 -0.223955)
(0.424298 0.0344936 -0.621703)
(0.141928 0.0310128 -0.734986)
(0.142641 0.0215448 -0.411266)
(0.0134718 0.00983599 -0.235982)
(0.0100255 0.00419048 -0.117329)
(0.62766 0.000136501 -0.00480759)
(0.645706 0.000509494 -0.0085429)
(0.647369 0.000816681 -0.0459121)
(0.84997 0.00238839 -0.0366976)
(0.689832 0.00712826 -0.7)
(0.184402 0.00831306 -0.57118)
(0.0830539 0.00739031 -0.383595)
(0.0183176 0.00596352 -0.223998)
(0.010411 0.00498041 -0.118361)
(0.149835 0.0493584 -0.763105)
(0.390523 0.0607003 -0.602896)
(0.183727 0.0453024 -0.437942)
(0.0206937 0.0260056 -0.236967)
(0.013523 0.00997343 -0.124175)
(0.000735446 0.00375345 -0.0554275)
(0.627095 9.47499e-05 -0.00544873)
(0.642976 0.000439497 -0.0106211)
(0.644609 0.00068001 -0.0511227)
(0.811973 0.00246175 -0.0492709)
(0.675126 0.00946897 -0.642389)
(0.212302 0.0110124 -0.544418)
(0.0943696 0.0101357 -0.377525)
(0.0235663 0.00763175 -0.222374)
(0.0113969 0.00590056 -0.118623)
(0.00189038 0.00418565 -0.0558223)
(0.203102 0.0700411 -0.460453)
(0.157957 0.0717775 -0.789118)
(0.339926 0.0999953 -0.584465)
(0.0353208 0.0482481 -0.255332)
(0.0220907 0.0242262 -0.124255)
(0.000655747 0.0080008 -0.0588136)
(0.00136099 0.00242611 -0.0233379)
(0.626376 5.5528e-05 -0.00598564)
(0.639726 0.000343362 -0.0126361)
(0.640826 0.000428823 -0.0551042)
(0.772805 0.00221455 -0.0620561)
(0.658563 0.00994678 -0.576821)
(0.243112 0.012644 -0.511989)
(0.109403 0.0126592 -0.367313)
(0.0307275 0.00977068 -0.21852)
(0.0133095 0.00711793 -0.117314)
(0.0031272 0.0046965 -0.0555299)
(0.00163034 0.00262669 -0.023354)
(0.0438884 0.0572731 -0.260603)
(0.206704 0.0845682 -0.459987)
(0.155085 0.0881448 -0.800748)
(0.233872 0.1155 -0.522085)
(0.0302187 0.0338508 -0.126977)
(0.000924355 0.0155128 -0.0583273)
(0.00190849 0.00466985 -0.0245922)
(-2.2835e-05 0.00129217 -0.00891556)
(0.636055 0.000246679 -0.014376)
(0.636015 6.9297e-05 -0.057647)
(0.734747 0.00187587 -0.0737797)
(0.640591 0.00690802 -0.508087)
(0.274764 0.0110831 -0.474868)
(0.127205 0.0123627 -0.352097)
(0.039815 0.0108215 -0.210885)
(0.0163535 0.00811414 -0.113181)
(0.00455385 0.00522251 -0.0533307)
(0.0019319 0.00282727 -0.0224573)
(0.000340136 0.00134308 -0.00856748)
(0.0280532 0.0254849 -0.105774)
(0.0393586 0.0449676 -0.22058)
(0.180191 0.0694035 -0.387358)
(0.108793 0.0707908 -0.694536)
(0.0733573 0.0602801 -0.319829)
(0.000871634 0.0135528 -0.0510013)
(0.00255581 0.00649441 -0.0225834)
(0.00010755 0.00213116 -0.00900984)
(-0.000131134 0.000589851 -0.00311552)
(0.632129 9.55315e-05 -0.0156271)
(0.630269 -4.80035e-05 -0.0586039)
(0.699546 0.000790068 -0.0829802)
(0.621613 0.00167337 -0.442015)
(0.304865 0.00372875 -0.436489)
(0.146697 0.00445799 -0.334936)
(0.0504499 0.00441707 -0.201211)
(0.0205091 0.00368139 -0.106862)
(0.00626616 0.00266484 -0.0492538)
(0.00235436 0.0016461 -0.0202629)
(0.000616375 0.000893521 -0.00755294)
(0.000119418 0.000444779 -0.00267777)
(0.000166802 0.00252581 -0.0235509)
(0.0138418 0.00494455 -0.047929)
(0.017374 0.00808754 -0.0993448)
(0.0839462 0.0124133 -0.158289)
(0.0264274 0.00777497 -0.2833)
(-0.00266643 0.00401547 -0.0695072)
(0.00140615 0.00149731 -0.011149)
(0.000129064 0.00106115 -0.00552248)
(7.99016e-06 0.000776294 -0.00251031)
(-0.000338356 0.000210815 -0.000932348)
(0.629094 0.000212812 -0.000128461)
(0.629065 0.000233298 -0.000412149)
(0.652679 0.000328961 -0.000131022)
(0.629027 0.000250134 -0.000750879)
(0.652588 0.00037865 -0.000445651)
(0.652077 0.000393255 -0.00228148)
(0.628974 0.00026178 -0.00115685)
(0.652412 0.000428536 -0.000894166)
(0.65202 0.000463819 -0.00723253)
(0.9752 0.000659577 -0.000629241)
(0.628901 0.000266923 -0.00163215)
(0.6521 0.000476141 -0.00151031)
(0.651923 0.000538356 -0.0128693)
(0.969858 0.000836518 -0.00212484)
(0.717765 0.000930083 -0.850261)
(0.628798 0.000264513 -0.00217469)
(0.651585 0.000518293 -0.0023476)
(0.651736 0.00061464 -0.0192291)
(0.958195 0.00105145 -0.00507854)
(0.721165 0.00118336 -0.845164)
(0.681687 0.00200673 -0.910014)
(0.125176 0.00208684 -0.632346)
(0.628651 0.00025389 -0.00277931)
(0.650784 0.000551196 -0.00345953)
(0.65137 0.000689322 -0.0260675)
(0.939991 0.00130569 -0.0097441)
(0.718891 0.00158752 -0.821238)
(0.130279 0.00260851 -0.62601)
(0.572995 0.00530976 -0.781606)
(0.131075 0.00443033 -0.687517)
(0.076194 0.00219345 -0.386193)
(0.628439 0.00023495 -0.0034353)
(0.649606 0.000570376 -0.00487981)
(0.650694 0.000757129 -0.0330513)
(0.915507 0.00159481 -0.016506)
(0.712408 0.00223673 -0.788678)
(0.142246 0.00335693 -0.612621)
(0.0732603 0.00281086 -0.387912)
(0.474072 0.0118895 -0.664799)
(0.134815 0.0108315 -0.705142)
(0.096498 0.00517435 -0.409056)
(0.0113503 0.00294037 -0.222286)
(0.628133 0.000208043 -0.00412318)
(0.647961 0.000570799 -0.00660269)
(0.64953 0.000807833 -0.0398241)
(0.885449 0.00189918 -0.0255952)
(0.702695 0.0032465 -0.749107)
(0.16038 0.00443208 -0.593984)
(0.075236 0.00365855 -0.387019)
(0.0137102 0.00340792 -0.223474)
(0.423318 0.0217056 -0.615864)
(0.139154 0.0216806 -0.732645)
(0.139185 0.0141448 -0.409801)
(0.0115418 0.00671755 -0.23522)
(0.00925077 0.00262973 -0.116862)
(0.627706 0.000174063 -0.00481069)
(0.64578 0.000548208 -0.00856728)
(0.647666 0.000821617 -0.0460194)
(0.850856 0.00218481 -0.0368286)
(0.690343 0.00473027 -0.70135)
(0.183772 0.0059474 -0.572007)
(0.082074 0.00492303 -0.383663)
(0.0173373 0.00400758 -0.223545)
(0.00971183 0.00325118 -0.117894)
(0.144631 0.0351296 -0.756644)
(0.387666 0.0382116 -0.590607)
(0.178495 0.0307413 -0.432679)
(0.0163332 0.017994 -0.234703)
(0.0121634 0.00667142 -0.123412)
(0.000182431 0.00260938 -0.0551344)
(0.627132 0.000135049 -0.00545107)
(0.643034 0.000498826 -0.0106483)
(0.644892 0.00076552 -0.0512722)
(0.813089 0.00236904 -0.0494787)
(0.675689 0.00655891 -0.645143)
(0.211373 0.0079133 -0.546272)
(0.093274 0.00679424 -0.378532)
(0.0225313 0.00496765 -0.222371)
(0.010759 0.00385179 -0.118378)
(0.00137267 0.00292597 -0.0556135)
(0.199278 0.0514222 -0.453672)
(0.151607 0.0532067 -0.778664)
(0.339817 0.0678594 -0.56746)
(0.0295238 0.0367998 -0.251286)
(0.0198812 0.0178831 -0.122752)
(-0.000355583 0.00586501 -0.0584214)
(0.00107492 0.00180593 -0.0232228)
(0.626404 9.39822e-05 -0.00598565)
(0.63976 0.000424583 -0.0126643)
(0.641072 0.000601525 -0.0552572)
(0.773935 0.00238085 -0.0623733)
(0.659044 0.00805577 -0.581493)
(0.241876 0.0100248 -0.51589)
(0.108114 0.00923049 -0.370505)
(0.0295665 0.00659744 -0.220073)
(0.0126581 0.00470079 -0.117975)
(0.00263502 0.00325816 -0.0557543)
(0.0013907 0.00193043 -0.023413)
(0.0417767 0.0530241 -0.267421)
(0.211793 0.0739885 -0.469312)
(0.158372 0.0769119 -0.805399)
(0.260447 0.10387 -0.533747)
(0.0297222 0.0314517 -0.129705)
(-0.000794533 0.013272 -0.05844)
(0.00149442 0.00366606 -0.0245862)
(-0.000294883 0.00100356 -0.00893596)
(0.636066 0.000326156 -0.0143993)
(0.636191 0.000349105 -0.0577417)
(0.735495 0.00207182 -0.074075)
(0.640856 0.00753489 -0.513078)
(0.27356 0.0105044 -0.480352)
(0.125866 0.0107309 -0.35805)
(0.0385967 0.00826515 -0.215495)
(0.0156619 0.00577986 -0.116345)
(0.00407678 0.0037203 -0.0551404)
(0.00173908 0.00209412 -0.02332)
(0.000123175 0.00105543 -0.00892988)
(0.033613 0.0339345 -0.12734)
(0.0475067 0.0574753 -0.264864)
(0.2132 0.0847415 -0.464414)
(0.145387 0.0856068 -0.802258)
(0.130793 0.0888714 -0.42519)
(-0.000358548 0.017062 -0.0590156)
(0.00235675 0.00680706 -0.0241639)
(-0.000307956 0.00187042 -0.00941722)
(-0.00037761 0.000491373 -0.00325793)
(0.632117 0.000228452 -0.0156488)
(0.63041 4.38358e-05 -0.0585832)
(0.699754 0.00167074 -0.0833342)
(0.621703 0.00435512 -0.445214)
(0.30418 0.00807556 -0.441565)
(0.145595 0.00922985 -0.341604)
(0.0494304 0.0083388 -0.208004)
(0.0198118 0.00633442 -0.112548)
(0.00580498 0.00413299 -0.0531079)
(0.00218527 0.0022813 -0.0223996)
(0.000464344 0.00111134 -0.00857367)
(-4.27998e-05 0.000501296 -0.00312361)
(-0.000172735 0.0116544 -0.0481135)
(0.0288697 0.0234179 -0.102167)
(0.0413403 0.0405076 -0.216546)
(0.173936 0.0573999 -0.369595)
(0.0854815 0.0513387 -0.624816)
(0.0179342 0.0269418 -0.201485)
(0.00242227 0.00564868 -0.0206693)
(-0.000326319 0.00253169 -0.00863597)
(-0.000322354 0.000795431 -0.0032863)
(-0.000789478 0.000223316 -0.00112592)
(0.628131 8.63118e-05 -0.0162563)
(0.624001 -3.79849e-05 -0.0577364)
(0.667968 0.0006659 -0.0890469)
(0.602218 0.000850354 -0.382482)
(0.331625 0.00248802 -0.40231)
(0.166324 0.00300365 -0.323872)
(0.0616233 0.003084 -0.199578)
(0.0249329 0.00259261 -0.107572)
(0.00786927 0.00187815 -0.049932)
(0.00280197 0.00116295 -0.0206419)
(0.000754785 0.000642235 -0.0077151)
(0.000170493 0.000329559 -0.00274823)
(-0.000260665 0.000162662 -0.000961039)