/*--------------------------------*- C++ -*----------------------------------*\
  =========                 |
  \\      /  F ield         | OpenFOAM: The Open Source CFD Toolbox
   \\    /   O peration     | Website:  https://openfoam.org
    \\  /    A nd           | Version:  7
     \\/     M anipulation  |
\*---------------------------------------------------------------------------*/
FoamFile
{
    version     2.0;
    format      ascii;
    class       surfaceScalarField;
    location    "118";
    object      phi;
}
// * * * * * * * * * * * * * * * * * * * * * * * * * * * * * * * * * * * * * //

dimensions      [0 3 -1 0 0 0 0];

internalField   nonuniform List<scalar> 
125526
(
5.19904e-11
-2.61377e-10
3.65528e-10
9.12322e-11
3.91578e-11
-2.9912e-10
4.92571e-10
1.00953e-10
6.09146e-12
-1.84598e-10
1.13831e-10
7.06856e-11
2.56759e-10
3.80835e-11
5.55603e-11
-2.72502e-10
2.91604e-10
1.65701e-11
2.25661e-11
-3.36304e-10
5.56844e-10
1.11777e-10
7.62768e-12
-2.06904e-10
1.25868e-10
7.03569e-11
4.30993e-10
6.19068e-11
4.24559e-11
-3.11792e-10
4.08676e-10
1.71729e-11
2.16916e-12
1.31952e-10
7.99382e-12
-2.22027e-10
5.53619e-11
8.14321e-11
1.48253e-10
2.70735e-11
7.29306e-11
2.40286e-10
1.64712e-11
4.80074e-11
-2.66999e-10
2.30934e-10
4.6276e-12
1.22149e-11
-3.74621e-10
6.13187e-10
1.23195e-10
7.1195e-12
-2.31214e-10
1.39391e-10
5.02727e-11
5.03596e-10
7.33324e-11
2.39166e-11
-3.50233e-10
4.62536e-10
1.80131e-11
3.62814e-12
1.462e-10
9.69115e-12
-2.48807e-10
6.11857e-11
1.23325e-10
3.2585e-10
6.32502e-11
8.33671e-11
4.32769e-10
2.73774e-11
3.71146e-11
-3.04544e-10
3.28147e-10
4.4628e-12
3.42118e-12
-1.75678e-10
8.21815e-11
7.05577e-12
-2.45787e-10
2.70944e-11
4.8252e-11
7.55332e-11
2.44683e-11
7.80222e-11
1.65452e-10
2.38854e-11
6.78438e-11
1.73902e-10
5.65969e-12
4.61472e-11
-2.64153e-10
2.20994e-10
1.63901e-12
6.77136e-12
-4.14829e-10
6.73924e-10
1.35434e-10
5.87363e-12
-2.57039e-10
1.54101e-10
3.12803e-11
5.50408e-10
8.17712e-11
1.2503e-11
-3.8976e-10
5.05216e-10
1.91528e-11
3.92754e-12
1.61956e-10
9.10033e-12
-2.77805e-10
6.75538e-11
1.18464e-10
4.24665e-10
8.37922e-11
6.80786e-11
5.1856e-10
3.2597e-11
2.06933e-11
-3.41473e-10
3.7152e-10
4.38789e-12
5.11976e-12
-1.9537e-10
9.10642e-11
8.72596e-12
-2.74881e-10
2.98524e-11
1.06466e-10
2.02642e-10
6.49941e-11
1.37063e-10
3.86482e-10
5.0496e-11
8.34671e-11
3.29355e-10
1.05456e-11
3.50951e-11
-3.01015e-10
3.15011e-10
1.51846e-12
1.13081e-12
-1.40825e-10
1.0821e-10
3.0294e-12
-2.14754e-10
4.81186e-11
6.73634e-12
-2.57475e-10
1.36804e-11
1.9308e-11
3.82559e-11
1.79692e-11
5.21194e-11
1.07047e-10
3.07538e-11
7.07956e-11
1.16165e-10
1.08267e-11
6.45585e-11
1.59916e-10
2.17887e-12
4.6418e-11
-2.65419e-10
2.19788e-10
8.5193e-13
4.00596e-12
-4.57464e-10
7.40746e-10
1.48637e-10
4.54241e-12
-2.84524e-10
1.70019e-10
1.84032e-11
5.96866e-10
8.99345e-11
6.84644e-12
-4.31178e-10
5.51691e-10
2.05778e-11
3.62058e-12
1.79093e-10
7.6235e-12
-3.08633e-10
7.44505e-11
9.24957e-11
4.805e-10
9.58762e-11
4.8354e-11
5.70685e-10
3.60271e-11
1.05286e-11
-3.79564e-10
4.04431e-10
4.44968e-12
5.41182e-12
-2.16904e-10
1.00763e-10
8.30079e-12
-3.06397e-10
3.29026e-11
1.36512e-10
2.99402e-10
9.52163e-11
1.49597e-10
5.2298e-10
6.68386e-11
7.31138e-11
4.01544e-10
1.29257e-11
1.92653e-11
-3.37228e-10
3.56013e-10
1.43238e-12
1.89843e-12
-1.56223e-10
1.20023e-10
4.69624e-12
-2.3873e-10
5.32465e-11
8.25861e-12
-2.87779e-10
1.50942e-11
5.83846e-11
1.12067e-10
5.14977e-11
1.29438e-10
2.98182e-10
7.5975e-11
1.35008e-10
2.89771e-10
2.58676e-11
8.10533e-11
3.05075e-10
3.98689e-12
3.49096e-11
-3.02451e-10
3.14692e-10
7.85695e-13
3.12839e-13
-1.14463e-10
1.28957e-10
1.11772e-12
-1.81808e-10
7.41466e-11
2.97355e-12
-2.4014e-10
2.78098e-11
6.55524e-12
-2.6589e-10
7.59628e-12
8.11749e-12
1.99128e-11
1.02256e-11
2.90504e-11
6.8455e-11
2.75105e-11
4.97409e-11
8.01101e-11
1.70677e-11
6.28323e-11
1.03518e-10
4.39298e-12
6.4919e-11
1.55963e-10
1.08464e-12
4.72518e-11
-2.67729e-10
2.20839e-10
4.90043e-13
2.5435e-12
-5.02844e-10
8.13297e-10
1.62862e-10
3.39506e-12
-3.13839e-10
1.87165e-10
1.08129e-11
6.49665e-10
9.86705e-11
4.17747e-12
-4.7514e-10
6.04205e-10
2.22411e-11
3.09513e-12
1.9764e-10
6.0076e-12
-3.41464e-10
8.1921e-11
6.44832e-11
5.20466e-10
1.04413e-10
3.24703e-11
6.18567e-10
3.89414e-11
5.57696e-12
-4.19525e-10
4.40413e-10
4.64137e-12
4.96443e-12
-2.40379e-10
1.11286e-10
7.01217e-12
-3.40019e-10
3.61942e-11
1.36084e-10
3.65555e-10
1.15374e-10
1.32115e-10
6.0653e-10
7.75127e-11
5.5603e-11
4.4385e-10
1.41191e-11
9.82645e-12
-3.74626e-10
3.87107e-10
1.40768e-12
2.42061e-12
-1.73173e-10
1.32925e-10
5.06822e-12
-2.64891e-10
5.8886e-11
7.84471e-12
-3.20552e-10
1.66403e-11
9.36112e-11
1.82171e-10
8.20049e-11
1.83258e-10
4.54236e-10
1.1014e-10
1.57874e-10
4.09447e-10
3.60701e-11
7.32789e-11
3.71778e-10
4.93552e-12
1.88081e-11
-3.38773e-10
3.55562e-10
7.44476e-13
6.67292e-13
-1.2698e-10
1.43069e-10
1.93148e-12
-2.017e-10
8.21796e-11
4.56183e-12
-2.66909e-10
3.07886e-11
7.94698e-12
-2.97132e-10
8.38377e-12
2.85578e-11
6.06942e-11
3.09327e-11
9.19632e-11
2.09234e-10
7.75327e-11
1.30121e-10
2.381e-10
4.7265e-11
1.26243e-10
2.57087e-10
1.0445e-11
8.17587e-11
2.9977e-10
2.06895e-12
3.53511e-11
-3.05135e-10
3.17375e-10
4.4555e-13
1.58245e-13
-9.51955e-11
1.46795e-10
3.18405e-13
-1.51979e-10
9.88093e-11
1.18489e-12
-2.15483e-10
4.83048e-11
2.86562e-12
-2.5749e-10
1.65444e-11
6.56443e-12
-2.71256e-10
4.55938e-12
3.63218e-12
1.15398e-11
4.74083e-12
1.61953e-11
4.40021e-11
1.84832e-11
2.82748e-11
6.01295e-11
1.92163e-11
4.29431e-11
6.96206e-11
8.02167e-12
6.06067e-11
9.75939e-11
2.15537e-12
6.60642e-11
1.55241e-10
6.18213e-13
4.76792e-11
-2.67979e-10
2.20485e-10
3.0493e-13
1.71078e-12
-5.51042e-10
8.91008e-10
1.78085e-10
2.49842e-12
-3.45094e-10
2.05549e-10
6.54733e-12
7.09334e-10
1.08229e-10
2.80327e-12
-5.22011e-10
6.62137e-10
2.41097e-11
2.54223e-12
2.17616e-10
4.57772e-12
-3.7653e-10
8.99846e-11
4.25159e-11
5.59223e-10
1.12409e-10
2.16359e-11
6.71852e-10
4.18581e-11
3.32713e-12
-4.61974e-10
4.81545e-10
4.92003e-12
4.25208e-12
-2.65781e-10
1.2267e-10
5.56016e-12
-3.75909e-10
3.97568e-11
1.17271e-10
4.10831e-10
1.28448e-10
1.03675e-10
6.66341e-10
8.50799e-11
3.96983e-11
4.80474e-10
1.47847e-11
5.388e-12
-4.13942e-10
4.21583e-10
1.43902e-12
2.68311e-12
-1.91649e-10
1.4694e-10
4.72772e-12
-2.9339e-10
6.49975e-11
6.66178e-12
-3.55554e-10
1.83051e-11
1.1209e-10
2.40732e-10
1.06344e-10
2.00467e-10
5.69379e-10
1.35315e-10
1.48692e-10
4.87903e-10
4.26424e-11
5.84905e-11
4.1054e-10
5.47445e-12
9.3979e-12
-3.76265e-10
3.86346e-10
7.37113e-13
9.74632e-13
-1.40682e-10
1.58473e-10
2.51305e-12
-2.23541e-10
9.09931e-11
4.92452e-12
-2.96083e-10
3.40547e-11
7.45691e-12
-3.30888e-10
9.24562e-12
5.34425e-11
1.04681e-10
5.26054e-11
1.56234e-10
3.49013e-10
1.22958e-10
1.94104e-10
3.82826e-10
7.27785e-11
1.54815e-10
3.64361e-10
1.4914e-11
7.39986e-11
3.65651e-10
2.60709e-12
1.88755e-11
-3.41768e-10
3.58569e-10
4.18822e-13
3.22438e-13
-1.05587e-10
1.62872e-10
7.11333e-13
-1.68606e-10
1.09583e-10
2.01223e-12
-2.39091e-10
5.35344e-11
4.36594e-12
-2.86161e-10
1.83176e-11
7.90286e-12
-3.03125e-10
5.03557e-12
1.32734e-11
3.58213e-11
1.52317e-11
5.8001e-11
1.41394e-10
5.69673e-11
9.31676e-11
1.92362e-10
5.83779e-11
1.193e-10
2.05727e-10
2.22689e-11
1.23033e-10
2.42471e-10
5.31731e-12
8.39243e-11
3.00429e-10
1.15562e-12
3.5563e-11
-3.05471e-10
3.17758e-10
2.74036e-13
5.54182e-14
1.62405e-10
1.78043e-13
-1.27423e-10
1.22061e-10
3.86451e-13
-1.88333e-10
7.12727e-11
1.13054e-12
-2.41264e-10
3.09479e-11
2.86247e-12
-2.67845e-10
1.02711e-11
6.55198e-12
-2.72893e-10
2.92129e-12
1.90511e-12
7.7751e-12
1.85957e-12
8.14791e-12
3.01421e-11
1.04529e-11
1.5455e-11
4.69415e-11
1.62162e-11
2.46295e-11
5.30916e-11
1.11158e-11
4.035e-11
6.14083e-11
3.85726e-12
5.99828e-11
9.62494e-11
1.16433e-12
6.67921e-11
1.53931e-10
3.80604e-13
4.72579e-11
-2.63892e-10
2.16739e-10
2.00015e-13
1.19885e-12
-6.01975e-10
9.73395e-10
1.94244e-10
1.83196e-12
-3.78286e-10
2.25139e-10
4.13657e-12
7.74807e-10
1.18611e-10
1.98587e-12
-5.71864e-10
7.24608e-10
2.61581e-11
2.04302e-12
2.39032e-10
3.4249e-12
-4.13962e-10
9.8653e-11
2.7659e-11
6.02906e-10
1.21285e-10
1.4637e-11
7.32352e-10
4.50122e-11
2.22157e-12
-5.07259e-10
5.27217e-10
5.25747e-12
3.50678e-12
-2.93104e-10
1.34936e-10
4.25792e-12
-4.14291e-10
4.36038e-11
9.23854e-11
4.46088e-10
1.3802e-10
7.60969e-11
7.20483e-10
9.1356e-11
2.77803e-11
5.20091e-10
1.52296e-11
3.40741e-12
-4.55775e-10
4.61172e-10
1.50364e-12
2.72324e-12
-2.11682e-10
1.62106e-10
4.11309e-12
-3.2423e-10
7.16059e-11
5.34296e-12
-3.9297e-10
2.0103e-11
1.12904e-10
2.8586e-10
1.24157e-10
1.882e-10
6.53359e-10
1.53697e-10
1.23919e-10
5.43574e-10
4.67525e-11
4.45575e-11
4.44512e-10
5.78851e-12
5.07926e-12
-4.157e-10
4.207e-10
7.58306e-13
1.20998e-12
-1.55598e-10
1.75215e-10
2.83517e-12
-2.47335e-10
1.00563e-10
4.62598e-12
-3.2785e-10
3.75921e-11
6.26104e-12
-3.66938e-10
1.01743e-11
7.37047e-11
1.47757e-10
7.27126e-11
1.99185e-10
4.71793e-10
1.60978e-10
2.23908e-10
5.00675e-10
9.27381e-11
1.53599e-10
4.3628e-10
1.81194e-11
5.92709e-11
4.03626e-10
2.92178e-12
9.36019e-12
-3.79562e-10
3.894e-10
4.14182e-13
4.8441e-13
-1.16961e-10
1.80414e-10
1.06439e-12
-1.86792e-10
1.21371e-10
2.60967e-12
-2.64961e-10
5.92737e-11
4.66486e-12
-3.17395e-10
2.02633e-11
7.3642e-12
-3.37539e-10
5.55515e-12
2.68657e-11
6.36609e-11
2.74274e-11
1.11245e-10
2.50825e-10
9.75487e-11
1.66915e-10
3.34777e-10
9.72588e-11
1.87773e-10
3.334e-10
3.5266e-11
1.51838e-10
3.44059e-10
7.70072e-12
7.65447e-11
3.67109e-10
1.44699e-12
1.88796e-11
-3.42144e-10
3.5899e-10
2.55719e-13
1.29182e-13
1.80194e-10
3.74429e-13
-1.41337e-10
1.35406e-10
8.07509e-13
-2.08959e-10
7.90298e-11
1.92064e-12
-2.67711e-10
3.42943e-11
4.33139e-12
-2.97652e-10
1.13761e-11
7.85071e-12
-3.04961e-10
3.2272e-12
6.6539e-12
2.45317e-11
6.54072e-12
3.14957e-11
9.93211e-11
3.39569e-11
5.84346e-11
1.54476e-10
5.1874e-11
8.5355e-11
1.69838e-10
3.35409e-11
1.1233e-10
1.81732e-10
1.10283e-11
1.23489e-10
2.39418e-10
2.82118e-12
8.55052e-11
2.99476e-10
7.24794e-13
3.51829e-11
-3.00852e-10
3.13023e-10
1.77451e-13
6.16985e-14
-1.07677e-10
1.42598e-10
2.25043e-13
-1.62237e-10
9.57399e-11
3.8287e-13
-2.19786e-10
4.94122e-11
1.10916e-12
-2.58052e-10
2.00448e-11
2.84785e-12
-2.72149e-10
6.6793e-12
6.45185e-12
-2.69388e-10
1.96485e-12
9.85168e-13
6.108e-12
6.81918e-13
3.84875e-12
2.28168e-11
5.33604e-12
8.38156e-12
3.78975e-11
1.11153e-11
1.37476e-11
4.40186e-11
1.15415e-11
2.27761e-11
4.41202e-11
5.62768e-12
3.91164e-11
5.90129e-11
1.97733e-12
5.96111e-11
9.4778e-11
7.05869e-13
6.63354e-11
1.50539e-10
2.4551e-13
4.5813e-11
-2.54548e-10
2.08799e-10
1.35591e-13
8.64472e-13
-6.55505e-10
1.06009e-09
2.11274e-10
1.34834e-12
-4.13339e-10
2.45871e-10
2.72996e-12
8.45067e-10
1.29735e-10
1.44204e-12
-6.24593e-10
7.91014e-10
2.83666e-11
1.62164e-12
2.61851e-10
2.54014e-12
-4.53752e-10
1.07912e-10
1.82534e-11
6.52815e-10
1.31398e-10
1.01089e-11
7.99254e-10
4.84928e-11
1.59091e-12
-5.5545e-10
5.766e-10
5.63881e-12
2.82583e-12
-3.22346e-10
1.48097e-10
3.20122e-12
-4.55294e-10
4.77441e-11
6.90415e-11
4.79366e-10
1.46883e-10
5.41203e-11
7.78075e-10
9.7539e-11
1.94957e-11
5.64888e-10
1.56259e-11
2.41042e-12
-5.0044e-10
5.05108e-10
1.58664e-12
2.59639e-12
-2.33282e-10
1.78437e-10
3.44368e-12
-3.5741e-10
7.87245e-11
4.15755e-12
-4.33027e-10
2.20406e-11
1.01587e-10
3.20227e-10
1.37178e-10
1.59706e-10
7.1936e-10
1.67637e-10
9.59423e-11
5.90124e-10
4.92997e-11
3.3585e-11
4.81414e-10
5.96018e-12
3.19545e-12
-4.57687e-10
4.60279e-10
7.95138e-13
1.36459e-12
-1.71767e-10
1.93338e-10
2.92431e-12
-2.73127e-10
1.10914e-10
4.07513e-12
-3.62227e-10
4.14137e-11
4.97351e-12
-4.05487e-10
1.11772e-11
8.41865e-11
1.8609e-10
8.92886e-11
2.13594e-10
5.71963e-10
1.91143e-10
2.21701e-10
5.91757e-10
1.07721e-10
1.35977e-10
4.88593e-10
2.02934e-11
4.55042e-11
4.37141e-10
3.11419e-12
5.0629e-12
-4.19322e-10
4.2395e-10
4.27195e-13
6.33842e-13
-1.29333e-10
1.99484e-10
1.347e-12
-2.06584e-10
1.34182e-10
2.95229e-12
-2.93133e-10
6.5504e-11
4.33984e-12
-3.51393e-10
2.23713e-11
6.14569e-12
-3.74285e-10
6.11571e-12
4.06784e-11
9.37389e-11
4.02055e-11
1.58519e-10
3.61183e-10
1.36049e-10
2.25331e-10
4.70935e-10
1.32303e-10
2.28478e-10
4.41806e-10
4.65066e-11
1.5171e-10
4.12448e-10
9.42599e-12
6.189e-11
4.05351e-10
1.62526e-12
9.30803e-12
-3.79963e-10
3.89697e-10
2.52202e-13
2.08771e-13
1.99602e-10
5.71329e-13
-1.5656e-10
1.49985e-10
1.18585e-12
-2.31496e-10
8.75273e-11
2.48929e-12
-2.96661e-10
3.79707e-11
4.59229e-12
-3.30123e-10
1.25864e-11
7.27804e-12
-3.39577e-10
3.56069e-12
1.34674e-11
4.43419e-11
1.25056e-11
6.58555e-11
1.82531e-10
6.1362e-11
1.18953e-10
2.80423e-10
9.1384e-11
1.60652e-10
2.98507e-10
5.68555e-11
1.78232e-10
2.95714e-10
1.7709e-11
1.53876e-10
3.40349e-10
4.07411e-12
7.84821e-11
3.66546e-10
9.14204e-13
1.86197e-11
-3.36971e-10
3.53626e-10
1.63852e-13
1.52891e-13
-1.19441e-10
1.58207e-10
4.4957e-13
-1.79969e-10
1.06191e-10
7.9577e-13
-2.43875e-10
5.47802e-11
1.88007e-12
-2.86344e-10
2.22154e-11
4.28847e-12
-3.02425e-10
7.3995e-12
7.7091e-12
-3.01053e-10
2.17117e-12
3.34267e-12
1.94771e-11
2.69714e-12
1.5568e-11
7.62285e-11
1.79141e-11
3.36753e-11
1.26502e-10
3.6637e-11
5.39492e-11
1.45215e-10
3.62957e-11
7.84159e-11
1.42235e-10
1.73978e-11
1.0998e-10
1.74006e-10
5.57696e-12
1.23951e-10
2.36215e-10
1.74266e-12
8.55456e-11
2.94076e-10
4.61471e-13
3.40621e-11
-2.90229e-10
3.02038e-10
1.18657e-13
3.59828e-14
1.60363e-10
8.29458e-14
-1.38968e-10
1.19246e-10
2.43019e-13
-1.95797e-10
7.15082e-11
3.78953e-13
-2.42786e-10
3.37672e-11
1.08005e-12
-2.6651e-10
1.33258e-11
2.8034e-12
-2.70036e-10
4.52431e-12
6.22566e-12
-2.60177e-10
1.36863e-12
4.97005e-13
2.62258e-13
5.34873e-12
1.65574e-12
1.92178e-11
2.62518e-12
4.49069e-12
3.20705e-11
6.67224e-12
7.65193e-12
3.81838e-11
9.29824e-12
1.27915e-11
3.63151e-11
6.55506e-12
2.13826e-11
4.04184e-11
2.83955e-12
3.84963e-11
5.71089e-11
1.15008e-12
5.8493e-11
9.23125e-11
4.39457e-13
6.44289e-11
1.44457e-10
1.59036e-13
4.32591e-11
-2.39458e-10
1.96241e-10
9.42047e-14
6.36913e-13
-7.1129e-10
1.15047e-09
2.2905e-10
1.00036e-12
-4.50156e-10
2.67674e-10
1.87496e-12
9.19433e-10
1.41511e-10
1.06071e-12
-6.80041e-10
8.60975e-10
3.07206e-11
1.27816e-12
2.85997e-10
1.87988e-12
-4.95793e-10
1.17731e-10
1.23765e-11
7.08296e-10
1.42647e-10
7.1208e-12
8.71422e-10
5.23158e-11
1.18275e-12
-6.06447e-10
6.29164e-10
6.05773e-12
2.24163e-12
-3.53449e-10
1.62131e-10
2.38878e-12
-4.98898e-10
5.2173e-11
5.02678e-11
5.1501e-10
1.56579e-10
3.81957e-11
8.42325e-10
1.04251e-10
1.38637e-11
6.14652e-10
1.60725e-11
1.80949e-12
-5.47983e-10
5.52542e-10
1.68023e-12
2.36188e-12
-2.56453e-10
1.95949e-10
2.81613e-12
-3.92932e-10
8.63627e-11
3.18506e-12
-4.75846e-10
2.41228e-11
8.48392e-11
3.48337e-10
1.47777e-10
1.26648e-10
7.7866e-10
1.79356e-10
7.13237e-11
6.35996e-10
5.10488e-11
2.54001e-11
5.22883e-10
6.03574e-12
2.25369e-12
-5.02531e-10
5.04219e-10
8.40143e-13
1.43985e-12
-1.89206e-10
2.1286e-10
2.82955e-12
-3.00934e-10
1.22056e-10
3.4672e-12
-3.9922e-10
4.55262e-11
3.83971e-12
-4.4677e-10
1.22574e-11
8.45118e-11
2.17925e-10
1.01977e-10
2.03484e-10
6.51973e-10
2.14676e-10
1.98115e-10
6.62801e-10
1.18546e-10
1.12645e-10
5.32403e-10
2.16426e-11
3.46976e-11
4.73821e-10
3.22478e-12
3.22322e-12
-4.61672e-10
4.63857e-10
4.49389e-13
7.61401e-13
-1.42736e-10
2.2013e-10
1.54459e-12
-2.28035e-10
1.48048e-10
3.06461e-12
-3.23665e-10
7.22401e-11
3.79562e-12
-3.88178e-10
2.46487e-11
4.85979e-12
-4.1358e-10
6.72141e-12
5.10622e-11
1.23673e-10
5.20333e-11
1.87949e-10
4.6245e-10
1.69372e-10
2.56133e-10
5.90112e-10
1.61986e-10
2.3954e-10
5.2951e-10
5.57418e-11
1.35696e-10
4.62818e-10
1.06294e-11
4.81211e-11
4.39088e-10
1.74535e-12
5.01826e-12
-4.19752e-10
4.24208e-10
2.60246e-13
2.90846e-13
2.20703e-10
7.56175e-13
-1.73118e-10
1.65833e-10
1.49205e-12
-2.56019e-10
9.67617e-11
2.81547e-12
-3.28177e-10
4.1962e-11
4.24097e-12
-3.6546e-10
1.38983e-11
6.04132e-12
-3.76532e-10
3.92077e-12
2.10311e-11
6.68228e-11
1.93523e-11
1.02382e-10
2.74544e-10
9.03184e-11
1.80448e-10
4.14369e-10
1.3112e-10
2.28309e-10
4.26919e-10
7.95328e-11
2.195e-10
3.94109e-10
2.35771e-11
1.55146e-10
4.08504e-10
5.00311e-12
6.38433e-11
4.04931e-10
1.02979e-12
9.1678e-12
-3.74207e-10
3.8375e-10
1.60567e-13
2.5255e-13
-1.32302e-10
1.75245e-10
6.72822e-13
-1.99355e-10
1.1762e-10
1.16742e-12
-2.70174e-10
6.06683e-11
2.43054e-12
-3.17301e-10
2.45982e-11
4.5182e-12
-3.35407e-10
8.18741e-12
7.12753e-12
-3.35224e-10
2.39575e-12
6.70867e-12
3.55097e-11
5.4661e-12
3.43982e-11
1.42661e-10
3.3545e-11
7.36907e-11
2.34895e-10
6.68748e-11
1.14156e-10
2.65588e-10
6.40955e-11
1.48817e-10
2.52268e-10
2.99e-11
1.76144e-10
2.82933e-10
8.96117e-12
1.55436e-10
3.36601e-10
2.53423e-12
7.9089e-11
3.6042e-10
5.76209e-13
1.79871e-11
-3.25072e-10
3.41203e-10
1.08239e-13
8.55163e-14
1.77924e-10
1.91929e-13
-1.54157e-10
1.32286e-10
4.75354e-13
-2.17216e-10
7.93006e-11
7.8465e-13
-2.69405e-10
3.74351e-11
1.82877e-12
-2.95729e-10
1.47709e-11
4.20832e-12
-3.00072e-10
5.01327e-12
7.4241e-12
-2.90768e-10
1.51254e-12
1.64539e-12
1.15996e-12
1.71687e-11
7.0966e-12
6.44882e-11
8.99656e-12
1.83835e-11
1.08135e-10
2.23883e-11
3.17735e-11
1.27769e-10
2.99613e-11
4.93755e-11
1.2097e-10
2.09764e-11
7.44708e-11
1.29634e-10
8.68127e-12
1.08607e-10
1.68388e-10
3.29369e-12
1.22785e-10
2.30453e-10
1.07391e-12
8.35697e-11
2.83062e-10
2.96705e-13
3.21329e-11
-2.73045e-10
2.84209e-10
8.1099e-14
4.54512e-14
-1.1915e-10
1.40499e-10
1.00734e-13
-1.71697e-10
9.50447e-11
2.53069e-13
-2.23311e-10
5.17809e-11
3.59542e-13
-2.56295e-10
2.31922e-11
1.05007e-12
-2.66891e-10
9.13034e-12
2.70538e-12
-2.61523e-10
3.16457e-12
5.85956e-12
-2.44926e-10
9.77177e-13
6.75862e-13
1.28833e-12
1.75159e-11
9.53544e-13
2.84135e-13
4.11104e-12
2.15292e-12
2.88075e-11
3.73524e-12
4.21562e-12
3.43625e-11
6.27782e-12
7.22488e-12
3.24404e-11
5.94803e-12
1.16709e-11
3.18429e-11
3.45958e-12
2.06522e-11
3.77319e-11
1.56426e-12
3.75911e-11
5.51897e-11
6.8176e-13
5.63237e-11
8.82983e-11
2.74208e-13
6.09291e-11
1.35368e-10
1.02207e-13
3.97062e-11
-2.19188e-10
1.7951e-10
6.55449e-14
4.78002e-13
-7.68913e-10
1.24385e-09
2.47433e-10
7.4996e-13
-4.88502e-10
2.90402e-10
1.33453e-12
9.9719e-10
1.53823e-10
7.8886e-13
-7.37844e-10
9.33967e-10
3.31993e-11
1.00388e-12
3.11388e-10
1.39516e-12
-5.39958e-10
1.28075e-10
8.64337e-12
7.68325e-10
1.54841e-10
5.10989e-12
9.4803e-10
5.64676e-11
8.99566e-13
-6.601e-10
6.84593e-10
6.51149e-12
1.75928e-12
-3.86309e-10
1.76995e-10
1.78298e-12
-5.44986e-10
5.68759e-11
3.6333e-11
5.54595e-10
1.67637e-10
2.7121e-11
9.13421e-10
1.11722e-10
1.00428e-11
6.68677e-10
1.66238e-11
1.39958e-12
-5.98297e-10
6.02983e-10
1.78137e-12
2.07195e-12
-2.81144e-10
2.14611e-10
2.26674e-12
-4.30727e-10
9.45098e-11
2.42532e-12
-5.21398e-10
2.63476e-11
6.76201e-11
3.74301e-10
1.57928e-10
9.62457e-11
8.38698e-10
1.90608e-10
5.21743e-11
6.85472e-10
5.25804e-11
1.93538e-11
5.68613e-10
6.0483e-12
1.68329e-12
-5.50268e-10
5.51629e-10
8.89788e-13
1.44455e-12
-2.07923e-10
2.33794e-10
2.60881e-12
-3.30763e-10
1.34001e-10
2.88662e-12
-4.38838e-10
4.99349e-11
2.92274e-12
-4.90909e-10
1.34173e-11
7.74219e-11
2.43754e-10
1.11673e-10
1.78037e-10
7.18263e-10
2.33621e-10
1.64799e-10
7.22372e-10
1.26297e-10
8.98501e-11
5.7435e-10
2.23765e-11
2.66036e-11
5.15076e-10
3.27288e-12
2.3134e-12
-5.0692e-10
5.08194e-10
4.76147e-13
8.59798e-13
-1.57186e-10
2.42373e-10
1.65383e-12
-2.51165e-10
1.62982e-10
2.99148e-12
-3.5658e-10
7.94887e-11
3.21541e-12
-4.27762e-10
2.70992e-11
3.74222e-12
-4.55671e-10
7.37392e-12
5.60257e-11
1.51114e-10
6.18477e-11
1.95978e-10
5.49482e-10
1.96441e-10
2.58484e-10
6.8915e-10
1.85974e-10
2.27722e-10
5.99891e-10
6.28763e-11
1.14058e-10
5.05694e-10
1.14079e-11
3.72978e-11
4.76078e-10
1.82747e-12
3.1939e-12
-4.6214e-10
4.6414e-10
2.74112e-13
3.71439e-13
2.43548e-10
9.17095e-13
-1.91055e-10
1.8299e-10
1.71129e-12
-2.82592e-10
1.06755e-10
2.9251e-12
-3.62325e-10
4.62775e-11
3.68776e-12
-4.03694e-10
1.5316e-11
4.751e-12
-4.1605e-10
4.3101e-12
2.76952e-11
9.06953e-11
2.63135e-11
1.31749e-10
3.67277e-10
1.17839e-10
2.27808e-10
5.44213e-10
1.67912e-10
2.74246e-10
5.45218e-10
1.00341e-10
2.33869e-10
4.75652e-10
2.85396e-11
1.40302e-10
4.58881e-10
5.67932e-12
4.99296e-11
4.38759e-10
1.10777e-12
4.95786e-12
-4.13382e-10
4.17687e-10
1.65219e-13
3.56394e-13
-1.46288e-10
1.93769e-10
8.822e-13
-2.2044e-10
1.30044e-10
1.47037e-12
-2.98785e-10
6.70672e-11
2.74249e-12
-3.50996e-10
2.71854e-11
4.14329e-12
-3.713e-10
9.04168e-12
5.9021e-12
-3.71699e-10
2.63834e-12
1.05909e-11
5.40968e-11
8.84374e-12
5.69319e-11
2.19975e-10
5.13877e-11
1.20751e-10
3.57836e-10
9.97916e-11
1.81103e-10
3.97735e-10
9.33566e-11
2.15067e-10
3.65041e-10
4.23511e-11
2.19031e-10
3.77192e-10
1.20025e-11
1.5749e-10
4.04763e-10
3.11737e-12
6.48676e-11
3.98358e-10
6.43508e-13
8.84995e-12
-3.60985e-10
3.70177e-10
1.05144e-13
1.40555e-13
1.97087e-10
3.09807e-13
-1.70758e-10
1.4653e-10
7.05888e-13
-2.40617e-10
8.78325e-11
1.14859e-12
-2.98455e-10
4.14589e-11
2.35846e-12
-3.27695e-10
1.63559e-11
4.41803e-12
-3.32794e-10
5.54743e-12
6.85107e-12
-3.23773e-10
1.66906e-12
3.29989e-12
2.45298e-12
3.14023e-11
1.64975e-11
1.21501e-10
1.72255e-11
4.16409e-11
2.03434e-10
4.17485e-11
7.17056e-11
2.38251e-10
5.42798e-11
1.04807e-10
2.23527e-10
3.74044e-11
1.42935e-10
2.29428e-10
1.49408e-11
1.74646e-10
2.74201e-10
5.32136e-12
1.551e-10
3.29087e-10
1.55252e-12
7.77042e-11
3.47279e-10
3.65707e-13
1.69436e-11
-3.05826e-10
3.21051e-10
7.27691e-14
1.05992e-13
-1.32171e-10
1.55877e-10
2.20697e-13
-1.90475e-10
1.05425e-10
4.87305e-13
-2.47757e-10
5.74186e-11
7.50499e-13
-2.84398e-10
2.57128e-11
1.77609e-12
-2.96149e-10
1.01222e-11
4.0521e-12
-2.90609e-10
3.50712e-12
6.97801e-12
-2.73731e-10
1.08007e-12
3.13427e-12
4.47392e-12
5.87158e-11
3.35229e-12
1.75309e-12
1.30169e-11
9.14099e-12
9.75034e-11
1.26399e-11
1.79142e-11
1.15952e-10
2.05073e-11
2.93192e-11
1.09467e-10
1.93705e-11
4.57394e-11
1.0558e-10
1.09625e-11
7.18914e-11
1.2099e-10
4.83954e-12
1.06638e-10
1.6276e-10
1.93918e-12
1.19082e-10
2.20707e-10
6.70891e-13
7.9392e-11
2.65859e-10
1.83328e-13
2.94743e-11
-2.49946e-10
2.60204e-10
5.50211e-14
2.01216e-14
1.58476e-10
5.70213e-14
-1.49276e-10
1.18022e-10
1.1714e-13
-2.01267e-10
7.28836e-11
2.45212e-13
-2.41786e-10
3.70274e-11
3.41533e-13
-2.6023e-10
1.61901e-11
1.00514e-12
-2.59825e-10
6.42691e-12
2.54754e-12
-2.46575e-10
2.26566e-12
5.36575e-12
-2.24284e-10
7.06991e-13
9.22355e-13
2.00556e-12
2.7168e-11
1.10243e-12
2.69324e-12
1.40043e-11
1.16696e-12
2.22054e-13
2.722e-12
2.11395e-12
3.2188e-11
3.79579e-12
4.08531e-12
3.02246e-11
4.40829e-12
6.57076e-12
2.78663e-11
3.3538e-12
1.09903e-11
2.83574e-11
1.84376e-12
1.99778e-11
3.59046e-11
8.71456e-13
3.61066e-11
5.2471e-11
4.02434e-13
5.29276e-11
8.2552e-11
1.63101e-13
5.59895e-11
1.23564e-10
5.9395e-14
3.54214e-11
-1.95151e-10
1.59751e-10
4.41619e-14
3.65237e-13
-8.27835e-10
1.33933e-09
2.66244e-10
5.69033e-13
-5.28097e-10
3.13883e-10
9.82685e-13
1.07764e-09
1.66557e-10
5.94437e-13
-7.97563e-10
1.00941e-09
3.57797e-11
7.87964e-13
3.37854e-10
1.04253e-12
-5.85962e-10
1.38872e-10
6.21019e-12
8.31853e-10
1.6777e-10
3.73694e-12
1.02826e-09
6.09075e-11
6.96288e-13
-7.16057e-10
7.42463e-10
6.99644e-12
1.37193e-12
-4.20819e-10
1.92637e-10
1.33861e-12
-5.93418e-10
6.18363e-11
2.63921e-11
5.98226e-10
1.8004e-10
1.95076e-11
9.90498e-10
1.19986e-10
7.43381e-12
7.26363e-10
1.73065e-11
1.10372e-12
-6.51231e-10
6.56149e-10
1.88924e-12
1.76732e-12
-3.07267e-10
2.34364e-10
1.8053e-12
-4.7067e-10
1.0314e-10
1.84856e-12
-5.69552e-10
2.8708e-11
5.25199e-11
4.00873e-10
1.68822e-10
7.15159e-11
9.03262e-10
2.02526e-10
3.82095e-11
7.40097e-10
5.42667e-11
1.48975e-11
6.18037e-10
6.02606e-12
1.29523e-12
-6.00781e-10
6.02008e-10
9.42715e-13
1.39193e-12
-2.27882e-10
2.56105e-10
2.31659e-12
-3.62552e-10
1.46728e-10
2.36706e-12
-4.81002e-10
5.46337e-11
2.21464e-12
-5.37868e-10
1.46559e-11
6.65687e-11
2.65393e-10
1.19761e-10
1.46617e-10
7.77865e-10
2.50181e-10
1.3063e-10
7.7804e-10
1.32209e-10
7.0344e-11
6.18003e-10
2.26964e-11
2.05652e-11
5.60445e-10
3.27072e-12
1.76035e-12
-5.55097e-10
5.56034e-10
5.05406e-13
9.24724e-13
-1.72693e-10
2.66228e-10
1.68068e-12
-2.75989e-10
1.78994e-10
2.78673e-12
-3.91888e-10
8.72555e-11
2.67255e-12
-4.70156e-10
2.97252e-11
2.84715e-12
-5.00682e-10
8.07446e-12
5.56176e-11
1.74737e-10
6.94248e-11
1.85768e-10
6.22272e-10
2.17874e-10
2.38906e-10
7.70753e-10
2.04818e-10
2.02142e-10
6.58226e-10
6.80004e-11
9.26458e-11
5.47023e-10
1.18412e-11
2.91734e-11
5.17712e-10
1.87926e-12
2.29305e-12
-5.07436e-10
5.08522e-10
2.90748e-13
4.46344e-13
2.68161e-10
1.04425e-12
-2.10391e-10
2.01472e-10
1.83894e-12
-3.11242e-10
1.17516e-10
2.86164e-12
-3.99131e-10
5.09213e-11
3.11267e-12
-4.44838e-10
1.68415e-11
3.63749e-12
-4.58382e-10
4.7297e-12
3.21003e-11
1.14133e-10
3.25757e-11
1.48087e-10
4.53307e-10
1.41684e-10
2.52629e-10
6.61018e-10
1.99752e-10
2.93675e-10
6.48011e-10
1.18425e-10
2.26967e-10
5.4295e-10
3.25232e-11
1.19649e-10
5.01985e-10
6.15449e-12
3.89007e-11
4.75834e-10
1.16172e-12
3.17654e-12
-4.55125e-10
4.57007e-10
1.73807e-13
4.59324e-13
-1.61434e-10
2.13823e-10
1.06547e-12
-2.43278e-10
1.43493e-10
1.69102e-12
-3.29783e-10
7.39921e-11
2.84421e-12
-3.87502e-10
2.99831e-11
3.57723e-12
-4.10133e-10
9.96515e-12
4.63169e-12
-4.10703e-10
2.90073e-12
1.43146e-11
7.4471e-11
1.25005e-11
7.80421e-11
3.02751e-10
6.97285e-11
1.64322e-10
4.85862e-10
1.32619e-10
2.40559e-10
5.31477e-10
1.22197e-10
2.64263e-10
4.7259e-10
5.42064e-11
2.36056e-10
4.5575e-10
1.46456e-11
1.43058e-10
4.55332e-10
3.539e-12
5.12008e-11
4.31775e-10
6.87097e-13
4.79746e-12
-3.98769e-10
4.02879e-10
1.07612e-13
1.99908e-13
2.17921e-10
4.32096e-13
-1.88809e-10
1.62016e-10
9.22688e-13
-2.66065e-10
9.71072e-11
1.4446e-12
-3.30057e-10
4.58319e-11
2.65286e-12
-3.62486e-10
1.80771e-11
4.03654e-12
-3.68402e-10
6.12669e-12
5.66349e-12
-3.58997e-10
1.83816e-12
5.26926e-12
4.08374e-12
4.80437e-11
2.87948e-11
1.89442e-10
2.70797e-11
7.1434e-11
3.15492e-10
6.39384e-11
1.21959e-10
3.65978e-10
8.12945e-11
1.68942e-10
3.39224e-10
5.50387e-11
2.09131e-10
3.32031e-10
2.13155e-11
2.18053e-10
3.66227e-10
7.13088e-12
1.5824e-10
3.96435e-10
1.89915e-12
6.41372e-11
3.83986e-10
4.01492e-13
8.33649e-12
-3.39605e-10
3.48248e-10
6.97421e-14
1.73026e-13
-1.46402e-10
1.72665e-10
3.49295e-13
-2.10989e-10
1.16774e-10
7.18679e-13
-2.74449e-10
6.35951e-11
1.10015e-12
-3.15063e-10
2.8477e-11
2.28686e-12
-3.28158e-10
1.12089e-11
4.24342e-12
-3.22297e-10
3.88095e-12
6.43161e-12
-3.04802e-10
1.19186e-12
7.6844e-12
8.67549e-12
1.10728e-10
6.93552e-12
4.08895e-12
2.37301e-11
2.15112e-11
1.84444e-10
2.3845e-11
4.17378e-11
2.18459e-10
3.77173e-11
6.60252e-11
2.05847e-10
3.52543e-11
9.82986e-11
1.94728e-10
1.95454e-11
1.38397e-10
2.14276e-10
8.36101e-12
1.72495e-10
2.65424e-10
3.12784e-12
1.51252e-10
3.15696e-10
9.64324e-13
7.41656e-11
3.26426e-10
2.16707e-13
1.55259e-11
-2.79953e-10
2.93927e-10
4.80164e-14
5.22354e-14
1.75828e-10
1.2694e-13
-1.65597e-10
1.30929e-10
2.44149e-13
-2.23294e-10
8.08349e-11
4.72133e-13
-2.68264e-10
4.10581e-11
7.17418e-13
-2.88764e-10
1.79517e-11
1.69853e-12
-2.88306e-10
7.12615e-12
3.8098e-12
-2.73998e-10
2.51126e-12
6.38379e-12
-2.50665e-10
7.81497e-13
4.2396e-12
6.81385e-12
9.18462e-11
5.7944e-12
9.48444e-12
4.62925e-11
3.9149e-12
1.4066e-12
8.86228e-12
9.31585e-12
1.08911e-10
1.24788e-11
1.69314e-11
1.02646e-10
1.4482e-11
2.69948e-11
9.36939e-11
1.08321e-11
4.30075e-11
9.40431e-11
5.89232e-12
6.98573e-11
1.15036e-10
2.6837e-12
1.02789e-10
1.54811e-10
1.15369e-12
1.12536e-10
2.06533e-10
3.88682e-13
7.32028e-11
2.43078e-10
9.63598e-14
2.62823e-11
-2.22545e-10
2.31704e-10
3.51431e-14
2.53775e-14
1.38519e-10
7.16355e-14
-1.78612e-10
9.52948e-11
1.21176e-13
-2.2354e-10
5.45164e-11
2.32292e-13
-2.4996e-10
2.65249e-11
3.20852e-13
-2.55473e-10
1.15178e-11
9.4211e-13
-2.45709e-10
4.61853e-12
2.33395e-12
-2.25996e-10
1.64374e-12
4.77888e-12
-1.99735e-10
5.11869e-13
9.77085e-13
2.13742e-12
3.10791e-11
1.70731e-12
4.78876e-12
2.33651e-11
1.96813e-12
2.30763e-12
9.95057e-12
9.59687e-13
1.20293e-13
1.64199e-12
2.19299e-12
2.89895e-11
2.8379e-12
3.77296e-12
2.58688e-11
2.63284e-12
6.07258e-12
2.3863e-11
1.77552e-12
1.04946e-11
2.62787e-11
9.7499e-13
1.90903e-11
3.3777e-11
4.75149e-13
3.38773e-11
4.88639e-11
2.13157e-13
4.84172e-11
7.52322e-11
7.75262e-14
4.99874e-11
1.09802e-10
2.15621e-14
3.07493e-11
-1.69174e-10
1.38443e-10
2.60058e-14
2.84397e-13
-8.87378e-10
1.43581e-09
2.85266e-10
4.37607e-13
-5.68572e-10
3.37895e-10
7.49313e-13
1.15998e-09
1.79581e-10
4.55309e-13
-8.58634e-10
1.08658e-09
3.84338e-11
6.19867e-13
3.65195e-10
7.87021e-13
-6.33464e-10
1.50039e-10
4.58779e-12
8.9801e-10
1.81255e-10
2.79076e-12
1.11133e-09
6.55857e-11
5.47788e-13
-7.73889e-10
8.02309e-10
7.50809e-12
1.0676e-12
-4.56755e-10
2.08952e-10
1.01481e-12
-6.4388e-10
6.70196e-11
1.94166e-11
6.45289e-10
1.9354e-10
1.4268e-11
1.0723e-09
1.28965e-10
5.63146e-12
7.87048e-10
1.81246e-11
8.8409e-13
-7.06439e-10
7.11651e-10
2.00344e-12
1.47594e-12
-3.34725e-10
2.5514e-10
1.42899e-12
-5.12631e-10
1.12226e-10
1.41766e-12
-6.2016e-10
3.11961e-11
4.03587e-11
4.29456e-10
1.80931e-10
5.27807e-11
9.73604e-10
2.1567e-10
2.83169e-11
7.99933e-10
5.63082e-11
1.16191e-11
6.7074e-10
5.99367e-12
1.02072e-12
-6.53917e-10
6.55082e-10
9.98426e-13
1.29745e-12
-2.49014e-10
2.79717e-10
1.99781e-12
-3.96186e-10
1.60198e-10
1.92071e-12
-5.25574e-10
5.96083e-11
1.68328e-12
-5.87511e-10
1.59693e-11
5.49595e-11
2.84966e-10
1.27517e-10
1.15996e-10
8.36461e-10
2.66243e-10
1.00651e-10
8.35151e-10
1.3745e-10
5.47863e-11
6.65082e-10
2.27789e-11
1.60683e-11
6.09302e-10
3.22906e-12
1.37928e-12
-6.06081e-10
6.06868e-10
5.36393e-13
9.55148e-13
-1.89229e-10
2.91653e-10
1.63763e-12
-3.0246e-10
1.96056e-10
2.50248e-12
-4.29518e-10
9.55279e-11
2.19342e-12
-5.15278e-10
3.25232e-11
2.16096e-12
-5.48577e-10
8.82213e-12
5.12925e-11
1.94493e-10
7.52251e-11
1.63938e-10
6.84165e-10
2.35291e-10
2.06769e-10
8.40658e-10
2.19701e-10
1.70976e-10
7.09957e-10
7.14212e-11
7.40313e-11
5.89756e-10
1.1999e-11
2.30768e-11
5.63497e-10
1.90401e-12
1.74498e-12
-5.55668e-10
5.56412e-10
3.08837e-13