/*--------------------------------*- C++ -*----------------------------------*\
  =========                 |
  \\      /  F ield         | OpenFOAM: The Open Source CFD Toolbox
   \\    /   O peration     | Website:  https://openfoam.org
    \\  /    A nd           | Version:  7
     \\/     M anipulation  |
\*---------------------------------------------------------------------------*/
FoamFile
{
    version     2.0;
    format      ascii;
    class       volVectorField;
    location    "118";
    object      U;
}
// * * * * * * * * * * * * * * * * * * * * * * * * * * * * * * * * * * * * * //

dimensions      [0 1 -1 0 0 0 0];

internalField   nonuniform List<vector> 
43305
(
(0.199009 0.0155406 -0.184014)
(0.202845 0.0189004 -0.186066)
(0.139197 0.00112087 -0.197807)
(0.105857 0.0338548 -0.299321)
(0.0267354 0.0124374 -0.135184)
(0.204817 0.0113416 -0.186728)
(0.139446 0.00229288 -0.202697)
(0.157678 0.0545919 -0.395573)
(0.0255863 0.0159411 -0.136195)
(0.111425 0.000283329 -0.118118)
(0.0607108 0.00113809 -0.171594)
(0.03971 0.0121033 -0.171957)
(0.0362107 0.0268903 -0.192254)
(0.00851117 0.00822017 -0.0975476)
(0.20566 0.00618708 -0.186702)
(0.139682 0.00227532 -0.205822)
(0.170686 0.0444714 -0.405271)
(0.02464 0.0093889 -0.136336)
(0.11149 0.000748808 -0.118467)
(0.0606251 0.0022853 -0.175634)
(0.08718 0.0514067 -0.305613)
(0.0537956 0.0471017 -0.271352)
(0.00760685 0.0108741 -0.0980963)
(0.0675399 0.000358018 -0.118526)
(0.0318073 0.000778366 -0.139038)
(0.01585 0.00223618 -0.074518)
(0.0270817 0.0101599 -0.130591)
(0.0211492 0.0189356 -0.11345)
(0.00225533 0.00628886 -0.0756683)
(0.205937 0.00334913 -0.186483)
(0.139888 0.00197574 -0.207552)
(0.173713 0.0284302 -0.40002)
(0.0239616 0.00496134 -0.136183)
(0.111583 0.000946697 -0.118845)
(0.0605141 0.0022261 -0.178127)
(0.105804 0.0550888 -0.342405)
(0.0570469 0.0432178 -0.281186)
(0.00692172 0.00638458 -0.0981013)
(0.0675351 0.000858035 -0.118872)
(0.031678 0.00158772 -0.141778)
(0.0423799 0.0246093 -0.175907)
(0.0525714 0.0410156 -0.248415)
(0.0332309 0.0353759 -0.166008)
(0.00185506 0.00827578 -0.0760186)
(0.0668979 9.14822e-05 -0.0997871)
(0.0415936 0.000244594 -0.109847)
(0.0151074 0.000592816 -0.112088)
(0.00665536 0.000453166 -0.0416172)
(0.0235844 0.00280008 -0.0789591)
(0.0221176 0.00690465 -0.0701904)
(0.00512333 0.0141809 -0.0852676)
(0.00121293 0.00514121 -0.0613542)
(0.205989 0.00192097 -0.186212)
(0.140036 0.00156099 -0.208428)
(0.174343 0.0167772 -0.395073)
(0.0234928 0.0026042 -0.135992)
(0.11167 0.000920165 -0.119211)
(0.0604093 0.00196469 -0.179402)
(0.111416 0.0455332 -0.345569)
(0.056475 0.0318704 -0.276617)
(0.0064713 0.00330702 -0.0979357)
(0.0675069 0.0010092 -0.119225)
(0.0315384 0.00157595 -0.14345)
(0.0580308 0.0366929 -0.226726)
(0.0621279 0.050191 -0.287035)
(0.0363476 0.035028 -0.173029)
(0.00155016 0.00475303 -0.0759692)
(0.0669032 0.000235904 -0.0998798)
(0.0415525 0.00060288 -0.110082)
(0.01505 0.00120157 -0.114189)
(0.0184383 0.00827463 -0.106438)
(0.052458 0.0214922 -0.190284)
(0.0443613 0.0299102 -0.14226)
(0.00831763 0.0270265 -0.12581)
(0.00101817 0.00674552 -0.0616171)
(0.061544 1.8496e-05 -0.0788611)
(0.047957 6.98538e-05 -0.0983321)
(0.0235993 0.000191777 -0.0953495)
(0.00824938 0.000470432 -0.0925489)
(0.00254767 9.24696e-05 -0.0216042)
(0.0157799 0.00101311 -0.0529828)
(0.0207692 0.00233207 -0.0443139)
(0.00604566 0.00440448 -0.0500339)
(0.00311703 0.0116251 -0.0686008)
(0.000644295 0.00436735 -0.0515158)
(0.205965 0.00118384 -0.185943)
(0.14013 0.00118165 -0.208871)
(0.174512 0.00976602 -0.392071)
(0.0231792 0.00151255 -0.135796)
(0.111737 0.000808585 -0.119516)
(0.0603221 0.00157842 -0.179949)
(0.112203 0.0328493 -0.341043)
(0.0551323 0.0215593 -0.271962)
(0.00618911 0.00167677 -0.0977527)
(0.0674758 0.000975265 -0.119574)
(0.0313943 0.00140434 -0.144261)
(0.0646592 0.0397469 -0.242814)
(0.0638558 0.0474544 -0.293137)
(0.0363104 0.027826 -0.169719)
(0.00135651 0.00244386 -0.0758125)
(0.0669043 0.000327134 -0.100013)
(0.0414947 0.000730885 -0.110326)
(0.0149824 0.00118455 -0.11543)
(0.0276072 0.0169963 -0.151804)
(0.0677364 0.0360343 -0.251561)
(0.054501 0.0399322 -0.169951)
(0.00911104 0.0274638 -0.131048)
(0.000875672 0.0038046 -0.0615616)
(0.0615461 5.92702e-05 -0.0788797)
(0.0479491 0.000184357 -0.0983945)
(0.0235815 0.000468302 -0.0955258)
(0.00821934 0.000946322 -0.0942752)
(0.0071028 0.00327809 -0.0584761)
(0.039957 0.00974615 -0.14142)
(0.048825 0.0159915 -0.113876)
(0.0131866 0.0217182 -0.101514)
(0.00524297 0.0221098 -0.102027)
(0.000526874 0.00573011 -0.0517234)
(0.0551952 7.79743e-06 -0.0654476)
(0.0489226 1.43702e-05 -0.0810711)
(0.0315636 5.93275e-05 -0.0903828)
(0.0139614 0.000150538 -0.0817228)
(0.00478075 0.000394272 -0.0783265)
(0.000941409 7.2728e-05 -0.0119904)
(0.00924654 0.000447284 -0.0340026)
(0.0154222 0.000833601 -0.0335621)
(0.0074803 0.0014073 -0.0308243)
(0.00374162 0.00343426 -0.0389422)
(0.00145371 0.0098265 -0.0574533)
(0.000403364 0.0038002 -0.0444174)
(0.205921 0.000778795 -0.185699)
(0.140183 0.000873558 -0.209101)
(0.174679 0.00580868 -0.390334)
(0.0229726 0.000979485 -0.135612)
(0.11178 0.000673863 -0.119751)
(0.0602552 0.00121897 -0.18017)
(0.111876 0.0219708 -0.337209)
(0.0539609 0.0142878 -0.269215)
(0.00599946 0.000945486 -0.0975714)
(0.0674458 0.000855631 -0.119868)
(0.0312656 0.00113634 -0.144556)
(0.0659969 0.0360599 -0.242188)
(0.062325 0.0387612 -0.289596)
(0.03513 0.0201061 -0.166202)
(0.00124516 0.00126337 -0.07566)
(0.0669041 0.000385215 -0.100157)
(0.0414305 0.000718632 -0.110567)
(0.0149096 0.00105838 -0.116012)
(0.033023 0.0229243 -0.176102)
(0.0738539 0.0433027 -0.276011)
(0.0579009 0.040573 -0.176387)
(0.00894181 0.0227346 -0.128366)
(0.000785829 0.00191611 -0.0614243)
(0.0615473 9.99675e-05 -0.0789098)
(0.0479363 0.000262449 -0.0984879)
(0.0235525 0.000564348 -0.0957058)
(0.00818409 0.00092034 -0.0952772)
(0.0112019 0.00800299 -0.0895902)
(0.0564968 0.021108 -0.206491)
(0.0659767 0.0288239 -0.158761)
(0.0170382 0.0304061 -0.121525)
(0.00593497 0.0225398 -0.10636)
(0.00044526 0.00320208 -0.0516664)
(0.0551956 2.35728e-05 -0.0654504)
(0.0489215 4.82174e-05 -0.0810852)
(0.0315591 0.000154106 -0.0904307)
(0.0139511 0.000365914 -0.081863)
(0.00476438 0.000789444 -0.0797987)
(0.00272347 0.00161479 -0.033231)
(0.0255143 0.00506753 -0.0968199)
(0.0407437 0.00739592 -0.0946721)
(0.0190975 0.011272 -0.0784207)
(0.00807701 0.0170999 -0.0792867)
(0.00241804 0.0188856 -0.0859954)
(0.000329194 0.00498871 -0.0445881)
(0.0491749 2.10508e-06 -0.0548632)
(0.0472384 6.74893e-06 -0.0682107)
(0.0360685 1.43542e-05 -0.0786968)
(0.0203505 4.60086e-05 -0.0805622)
(0.00849129 0.000125871 -0.070319)
(0.00300852 0.000340104 -0.0678094)
(0.000274504 9.8966e-05 -0.00763467)
(0.00531243 0.000222413 -0.0226686)
(0.0103877 0.000325251 -0.0259125)
(0.00784492 0.000490397 -0.0232268)
(0.00439631 0.00113532 -0.0227636)
(0.00161613 0.00276922 -0.032164)
(0.00097263 0.00853736 -0.0494331)
(0.000256539 0.00337471 -0.0391697)
(0.205874 0.000537347 -0.185487)
(0.140206 0.000640739 -0.209227)
(0.174894 0.00359855 -0.389239)
(0.022835 0.000682293 -0.135448)
(0.111804 0.000545918 -0.119922)
(0.0602061 0.000917773 -0.18026)
(0.111658 0.0142866 -0.335392)
(0.053176 0.00956858 -0.267777)
(0.00586185 0.000604276 -0.0974023)
(0.0674202 0.000715976 -0.1201)
(0.0311565 0.000882293 -0.144628)
(0.065216 0.0292609 -0.236426)
(0.0600306 0.0290413 -0.2853)
(0.0336285 0.0140592 -0.164032)
(0.00117727 0.000750441 -0.0755174)
(0.0669026 0.000405493 -0.100293)
(0.0413688 0.000640805 -0.110769)
(0.0148425 0.000863857 -0.116211)
(0.0351641 0.0246867 -0.184462)
(0.0746289 0.0430657 -0.280563)
(0.0576562 0.035317 -0.175119)
(0.00838675 0.0174222 -0.125667)
(0.000732572 0.000971957 -0.0612955)
(0.0615482 0.000132336 -0.0789512)
(0.0479189 0.000314739 -0.0985907)
(0.0235184 0.000557362 -0.0958828)
(0.00814538 0.000812773 -0.0957356)
(0.0142903 0.0126868 -0.112098)
(0.0658142 0.0304 -0.244934)
(0.0748453 0.0367936 -0.181115)
(0.0186235 0.0324974 -0.1264)
(0.00602268 0.018699 -0.104127)
(0.000396459 0.00159819 -0.0515457)
(0.055196 3.94721e-05 -0.0654571)
(0.0489188 8.42335e-05 -0.0811086)
(0.031551 0.000216923 -0.0905013)
(0.0139349 0.000436855 -0.0820038)
(0.00474562 0.000761528 -0.0806449)
(0.00447058 0.00420339 -0.0527881)
(0.0390647 0.0126333 -0.151985)
(0.0599666 0.0169808 -0.145104)
(0.0274822 0.0215291 -0.109958)
(0.0104538 0.0241636 -0.0951179)
(0.00270284 0.0194071 -0.0897285)
(0.000278892 0.00277166 -0.0445325)
(0.0491749 7.26789e-06 -0.0548642)
(0.0472381 2.10278e-05 -0.0682128)
(0.0360681 4.48518e-05 -0.0787084)
(0.0203471 0.000119568 -0.0805998)
(0.00848586 0.000304457 -0.0704367)
(0.00299838 0.000678892 -0.0690942)
(0.000985552 0.00108522 -0.0215025)
(0.0155398 0.00285928 -0.0666827)
(0.0295077 0.00379901 -0.0762467)
(0.0216748 0.00523221 -0.0652975)
(0.0110077 0.00857308 -0.0578591)
(0.00353513 0.0142409 -0.0657323)
(0.00165811 0.0165508 -0.0743519)
(0.000205579 0.00443296 -0.0393143)
(0.0441113 1.76719e-06 -0.057302)
(0.0379885 6.94862e-06 -0.0684696)
(0.0253913 1.1592e-05 -0.0733795)
(0.0130797 3.77339e-05 -0.0709609)
(0.00544052 0.000108245 -0.0613424)
(0.00198865 0.00030053 -0.0599385)
(-8.2931e-06 9.93977e-05 -0.00559493)
(0.00318347 0.000123948 -0.0164453)
(0.00716845 0.000176474 -0.02074)
(0.00717846 0.000192804 -0.0187147)
(0.00472709 0.000407467 -0.0159466)
(0.00182608 0.000903958 -0.0185681)
(0.00109227 0.0023459 -0.0273827)
(0.000583934 0.00757034 -0.0435198)
(0.000173959 0.00305512 -0.0352742)
(0.20583 0.000383246 -0.185308)
(0.140212 0.00047039 -0.209299)
(0.175126 0.00233146 -0.388469)
(0.0227407 0.000491814 -0.135306)
(0.111814 0.000435352 -0.120041)
(0.0601705 0.000682734 -0.180298)
(0.111706 0.00934748 -0.334931)
(0.0527292 0.00654697 -0.26698)
(0.00575713 0.000422661 -0.0972517)
(0.0673996 0.000582218 -0.120273)
(0.0310677 0.00066744 -0.14462)
(0.0641036 0.0222152 -0.230951)
(0.0580752 0.0208186 -0.282548)
(0.0321802 0.00980229 -0.162828)
(0.00113063 0.000509829 -0.0753878)
(0.0669005 0.000397239 -0.10041)
(0.0413133 0.00054448 -0.110925)
(0.0147847 0.000680373 -0.116254)
(0.0353484 0.0231294 -0.18376)
(0.072858 0.0379078 -0.277018)
(0.0556811 0.0280035 -0.17226)
(0.00769083 0.0130925 -0.12404)
(0.000697001 0.000572637 -0.0611776)
(0.0615486 0.000155508 -0.0789998)
(0.0478989 0.000337003 -0.0986875)
(0.0234838 0.000502043 -0.0960299)
(0.00810852 0.000656351 -0.0958858)
(0.0160359 0.015732 -0.125267)
(0.0697021 0.034977 -0.262224)
(0.0780513 0.0386827 -0.188622)
(0.0187326 0.0299776 -0.125807)
(0.00583147 0.0144069 -0.101922)
(0.00036924 0.000807239 -0.0514362)
(0.0551964 5.47041e-05 -0.0654676)
(0.0489146 0.000113836 -0.0811414)
(0.0315392 0.000260375 -0.0905786)
(0.0139152 0.000426905 -0.0821403)
(0.00472539 0.000668251 -0.0810272)
(0.00601495 0.00731703 -0.069354)
(0.0486567 0.020668 -0.193414)
(0.0725545 0.026004 -0.179677)
(0.0327794 0.0290523 -0.126714)
(0.0115407 0.0259964 -0.0990528)
(0.0027157 0.0162374 -0.0878167)
(0.000249621 0.00137499 -0.044425)
(0.049175 1.35125e-05 -0.0548663)
(0.0472376 3.6068e-05 -0.0682182)
(0.0360662 7.51028e-05 -0.0787273)
(0.0203414 0.000168264 -0.0806546)
(0.00847723 0.000360625 -0.0705538)
(0.00298698 0.000651152 -0.0698282)
(0.00179638 0.00275465 -0.0348256)
(0.0252888 0.00780766 -0.109299)
(0.0464158 0.0101415 -0.123328)
(0.0333334 0.0126105 -0.101002)
(0.0157565 0.0165045 -0.0813639)
(0.00460147 0.020362 -0.0790837)
(0.001889 0.0171275 -0.0776385)
(0.000171568 0.00245403 -0.0392606)
(0.0441112 6.53187e-06 -0.0573028)
(0.0379884 2.05823e-05 -0.0684717)
(0.0253905 3.60141e-05 -0.0733884)
(0.0130779 9.79047e-05 -0.0709924)
(0.00543717 0.000260949 -0.0614442)
(0.00198197 0.000598787 -0.0610818)
(0.000253605 0.000837076 -0.0159957)
(0.00979142 0.00179431 -0.0492288)
(0.0212008 0.00229249 -0.0620231)
(0.0206079 0.00272586 -0.0551523)
(0.0128777 0.00390197 -0.045063)
(0.0046839 0.00696801 -0.0470761)
(0.00240426 0.0122732 -0.0561381)
(0.000984961 0.0147968 -0.0657008)
(0.000138211 0.00401522 -0.0354003)
(0.0405226 8.78956e-07 -0.0487423)
(0.0377317 1.96468e-06 -0.058633)
(0.0289572 6.15562e-06 -0.0662582)
(0.0174126 9.60093e-06 -0.0667202)
(0.00861353 3.17246e-05 -0.0627086)
(0.00363221 9.5636e-05 -0.0544194)
(0.00137138 0.000271124 -0.0540571)
(-0.000113664 9.87483e-05 -0.00465772)
(0.00210168 6.1041e-05 -0.0131724)
(0.00532288 0.000121939 -0.0171797)
(0.00615196 0.000107662 -0.0160638)
(0.00476885 0.000169473 -0.0124348)
(0.00202731 0.000306398 -0.0124744)
(0.00119056 0.000774725 -0.0156794)
(0.000625401 0.00203838 -0.0239202)
(0.000395257 0.00684796 -0.0391406)
(0.000119624 0.00281773 -0.0324069)
(0.205791 0.000279915 -0.185159)
(0.140208 0.000347583 -0.209342)
(0.175344 0.00157504 -0.387885)
(0.022674 0.000360148 -0.135187)
(0.111815 0.000344051 -0.120122)
(0.0601445 0.000505368 -0.180314)
(0.111908 0.00626403 -0.335112)
(0.0525113 0.00457524 -0.266477)
(0.00567666 0.000310245 -0.0971229)
(0.0673832 0.000464854 -0.120398)
(0.0309971 0.000499155 -0.144588)
(0.0632976 0.0162932 -0.227285)
(0.0567177 0.0146995 -0.28121)
(0.0309419 0.00691207 -0.162117)
(0.00109489 0.000375499 -0.0752733)
(0.066898 0.000368772 -0.100507)
(0.0412657 0.000449408 -0.111039)
(0.014737 0.000523933 -0.116242)
(0.0347635 0.0198012 -0.179402)
(0.0703424 0.0307682 -0.271794)
(0.0531682 0.0210524 -0.169931)
(0.0069725 0.00985206 -0.12313)
(0.000669485 0.000388057 -0.0610711)
(0.0615487 0.000168928 -0.0790518)
(0.0478778 0.000335283 -0.0987715)
(0.0234513 0.000432935 -0.0961441)
(0.00807528 0.000512531 -0.0959142)
(0.0166423 0.0166468 -0.130778)
(0.0701809 0.0348889 -0.266234)
(0.07771 0.0359253 -0.188316)
(0.0179518 0.0253956 -0.123973)
(0.00549874 0.0109344 -0.10062)
(0.000351988 0.000479228 -0.0513379)
(0.0551968 6.82123e-05 -0.0654816)
(0.0489092 0.000136193 -0.0811805)
(0.0315246 0.000280132 -0.0906514)
(0.0138945 0.000381236 -0.0822519)
(0.00470644 0.000536696 -0.0811499)
(0.00711632 0.0100308 -0.081579)
(0.0541606 0.0265879 -0.219411)
(0.0793915 0.0317963 -0.198942)
(0.0354864 0.032341 -0.13331)
(0.0117897 0.0241883 -0.098747)
(0.0026149 0.0126482 -0.0859414)
(0.000233752 0.000691078 -0.0443295)
(0.049175 1.99684e-05 -0.0548697)
(0.0472366 5.06167e-05 -0.0682269)
(0.0360631 0.000100554 -0.0787537)
(0.0203331 0.000201844 -0.0807137)
(0.00846692 0.000349673 -0.0706666)
(0.00297483 0.000568482 -0.070157)
(0.00260957 0.00488397 -0.0470488)
(0.0334756 0.0140275 -0.146319)
(0.059531 0.0177241 -0.161942)
(0.0421429 0.0203557 -0.127112)
(0.0188588 0.0225232 -0.094129)
(0.00509122 0.0221097 -0.0824915)
(0.00193164 0.0144214 -0.0759697)
(0.000152129 0.00121439 -0.0391634)
(0.0441111 1.26412e-05 -0.0573047)
(0.0379879 3.40424e-05 -0.0684764)
(0.0253888 6.01044e-05 -0.0734028)
(0.0130747 0.00013742 -0.0710379)
(0.00543193 0.000307257 -0.0615449)
(0.00197455 0.000572448 -0.061732)
(0.000662027 0.00208284 -0.0262357)
(0.0167051 0.00518966 -0.0826135)
(0.0348222 0.00659894 -0.103073)
(0.032999 0.0075433 -0.0899614)
(0.0197558 0.0094146 -0.0702377)
(0.00681898 0.0135498 -0.0662518)
(0.00314817 0.0177021 -0.0677247)
(0.00110795 0.0154221 -0.0686448)
(0.000114578 0.00221703 -0.0353488)
(0.0405225 3.08989e-06 -0.0487424)
(0.0377317 6.72417e-06 -0.0586339)
(0.0289569 1.78672e-05 -0.0662598)
(0.0174121 2.97203e-05 -0.0667274)
(0.0086124 8.22694e-05 -0.0627358)
(0.00363003 0.000230034 -0.0545095)
(0.00136676 0.00053949 -0.0550937)
(-3.16759e-05 0.000688408 -0.0134439)
(0.00675555 0.0011841 -0.0397948)
(0.0161071 0.00161743 -0.0519705)
(0.0180876 0.0016855 -0.0481626)
(0.0135454 0.00203941 -0.0370068)
(0.00564782 0.00307832 -0.0350847)
(0.00303328 0.005919 -0.0397586)
(0.00137721 0.0108454 -0.0491593)
(0.000668288 0.0134704 -0.0592555)
(9.34273e-05 0.0037047 -0.0325199)
(0.0361681 8.92911e-07 -0.0502618)
(0.0307234 1.99426e-06 -0.0583756)
(0.0212146 5.38968e-06 -0.0622382)
(0.011932 7.8324e-06 -0.0601478)
(0.00583766 2.76663e-05 -0.056024)
(0.00251601 8.62979e-05 -0.0491691)
(0.000972171 0.000249455 -0.0497112)
(0.00156107 2.3545e-05 -0.0115817)
(-0.000191787 6.92931e-05 -0.00373516)
(0.00431351 7.76206e-05 -0.0149687)
(0.00531135 7.41395e-05 -0.0142197)
(0.00456311 9.89049e-05 -0.0108829)
(0.00228175 0.00011889 -0.00924211)
(0.00124431 0.000260754 -0.0102402)
(0.000644066 0.000676663 -0.0136559)
(0.000417276 0.00181814 -0.0213832)
(0.000251236 0.00631186 -0.0359232)
(8.41093e-05 0.00264576 -0.0303431)
(0.205756 0.000208417 -0.185035)
(0.140199 0.000259292 -0.209368)
(0.175535 0.00110428 -0.387423)
(0.0226254 0.000266564 -0.135089)
(0.11181 0.000270558 -0.120174)
(0.060125 0.000374371 -0.180319)
(0.112162 0.00432271 -0.335523)
(0.0524296 0.0032588 -0.266122)
(0.00561546 0.000233983 -0.0970157)
(0.0673702 0.000366411 -0.120484)
(0.0309417 0.000372163 -0.144552)
(0.0628495 0.011795 -0.225237)
(0.0558639 0.0103993 -0.280709)
(0.0299563 0.00496035 -0.161649)
(0.00106605 0.000287392 -0.0751757)
(0.0668953 0.000328648 -0.100584)
(0.0412258 0.000364095 -0.111116)
(0.0146988 0.000399648 -0.116215)
(0.0341014 0.0160094 -0.17454)
(0.0680196 0.0237081 -0.267497)
(0.0507705 0.0154397 -0.168481)
(0.00629607 0.00746892 -0.122568)
(0.000645969 0.000284689 -0.0609771)
(0.0615486 0.000173327 -0.0791036)
(0.0478571 0.000315686 -0.0988403)
(0.0234222 0.000363588 -0.0962267)
(0.00804645 0.000391901 -0.0959015)
(0.0165708 0.0157938 -0.131338)
(0.068945 0.0315083 -0.263628)
(0.0754755 0.0306578 -0.185004)
(0.0167236 0.020493 -0.122334)
(0.00509348 0.00833659 -0.0999009)
(0.000339184 0.000330005 -0.0512503)
(0.0551972 7.92001e-05 -0.0654984)
(0.0489029 0.000150278 -0.0812228)
(0.0315085 0.000280901 -0.0907148)
(0.0138741 0.000326893 -0.0823369)
(0.00468954 0.00041764 -0.0811724)
(0.0076879 0.0116837 -0.0890464)
(0.0563594 0.0292651 -0.232307)
(0.0819048 0.0336754 -0.206662)
(0.0361697 0.031937 -0.134077)
(0.0114987 0.0207553 -0.0975073)
(0.0024612 0.00974045 -0.0848449)
(0.000223693 0.000409788 -0.0442447)
(0.0491751 2.64934e-05 -0.0548746)
(0.0472353 6.37818e-05 -0.0682388)
(0.0360586 0.000120014 -0.0787852)
(0.0203227 0.000217219 -0.0807683)
(0.00845613 0.000310163 -0.0707583)
(0.00296356 0.000454047 -0.0702609)
(0.0032883 0.00699117 -0.0572452)
(0.0392523 0.0197332 -0.174259)
(0.0682196 0.0243438 -0.189116)
(0.0479961 0.0263183 -0.1433)
(0.0206139 0.0254427 -0.0994726)
(0.00521073 0.020776 -0.0823341)
(0.0018913 0.011301 -0.0743372)
(0.000141872 0.00061087 -0.0390784)
(0.0441109 1.89705e-05 -0.0573078)
(0.037987 4.71872e-05 -0.068484)
(0.025386 8.04901e-05 -0.0734228)
(0.0130701 0.000164427 -0.0710865)
(0.00542575 0.000295892 -0.0616415)
(0.00196675 0.00049855 -0.0620216)
(0.00112004 0.00369907 -0.0360021)
(0.0232395 0.00993514 -0.114122)
(0.0467293 0.0125078 -0.140313)
(0.0434431 0.0137671 -0.119929)
(0.0251345 0.0154068 -0.0893023)
(0.008271 0.0186736 -0.076752)
(0.00350661 0.0193333 -0.0707682)
(0.00111821 0.0130878 -0.0671604)
(0.000101187 0.00109532 -0.0352596)
(0.0405225 5.84779e-06 -0.0487429)
(0.0377316 1.24479e-05 -0.0586357)
(0.0289563 2.91083e-05 -0.0662635)
(0.017411 4.94458e-05 -0.0667391)
(0.00861048 0.00011526 -0.0627749)
(0.00362667 0.000269881 -0.0545982)
(0.00136168 0.00051457 -0.0556812)
(0.000199359 0.00170475 -0.0221835)
(0.0119407 0.00365441 -0.0675561)
(0.0271616 0.00479775 -0.087785)
(0.0297387 0.00500079 -0.0804734)
(0.0216299 0.00559446 -0.0610142)
(0.00882225 0.00750061 -0.0546053)
(0.00440018 0.0115653 -0.0560756)
(0.00179765 0.0157808 -0.0594384)
(0.000750948 0.0141192 -0.0619381)
(7.61834e-05 0.00204181 -0.0324704)
(0.0361681 3.07439e-06 -0.050262)
(0.0307234 6.44124e-06 -0.0583764)
(0.0212144 1.54172e-05 -0.0622394)
(0.0119317 2.44541e-05 -0.0601538)
(0.00583696 7.16942e-05 -0.0560481)
(0.00251451 0.000207239 -0.0492504)
(0.000968881 0.000495922 -0.0506684)
(0.00519024 0.000821276 -0.0350393)
(-0.000272362 0.000475356 -0.0107141)
(0.0132102 0.00117924 -0.0456162)
(0.0158419 0.00122686 -0.0430903)
(0.013261 0.00127696 -0.0329347)
(0.00657654 0.00156811 -0.0273706)
(0.0034241 0.00256293 -0.0287996)
(0.00165484 0.00518949 -0.0346389)
(0.000919934 0.00978941 -0.044024)
(0.000412736 0.0124781 -0.0544983)
(6.45845e-05 0.00347963 -0.030447)
(0.0339315 3.14465e-07 -0.0431795)
(0.0309876 9.32496e-07 -0.0509387)
(0.0239472 1.9831e-06 -0.0565181)
(0.0152417 4.50792e-06 -0.0574745)
(0.00827968 6.65103e-06 -0.0543754)
(0.0040749 2.47536e-05 -0.0508157)
(0.0017896 7.94475e-05 -0.0452601)
(0.000702456 0.000233825 -0.0465754)
(0.00373871 3.6678e-05 -0.0137984)
(0.000928996 -6.02611e-06 -0.00973604)
(-0.000106422 6.49054e-05 -0.00273663)
(0.00477122 4.75456e-05 -0.0130511)
(0.00431606 7.02212e-05 -0.0099832)
(0.00246112 6.895e-05 -0.00785211)
(0.00133714 0.000100295 -0.00725483)
(0.000633271 0.000223856 -0.00880962)
(0.000416258 0.000608188 -0.0121785)
(0.000248199 0.00165787 -0.0195353)
(0.000160248 0.00592417 -0.0336111)
(5.80979e-05 0.00252527 -0.0289034)
(0.205727 0.000157969 -0.184932)
(0.140188 0.000195635 -0.209384)
(0.175697 0.000801049 -0.387048)
(0.0225893 0.00019963 -0.135008)
(0.111802 0.000212354 -0.120208)
(0.0601102 0.000278748 -0.180317)
(0.112411 0.00307013 -0.335977)
(0.0524232 0.00236421 -0.265853)
(0.00556969 0.000179829 -0.0969279)
(0.0673596 0.000286422 -0.120542)
(0.0308989 0.000278491 -0.144517)
(0.0626394 0.00854672 -0.22423)
(0.0553534 0.00743682 -0.280617)
(0.0292085 0.00363555 -0.161316)
(0.00104258 0.000224905 -0.0750944)
(0.0668925 0.000283736 -0.100643)
(0.0411934 0.000291212 -0.111166)
(0.0146684 0.000304201 -0.116185)
(0.0336187 0.0125222 -0.170497)
(0.0662121 0.0177342 -0.26465)
(0.0487617 0.0112706 -0.167715)
(0.00569746 0.00571647 -0.122175)
(0.000625077 0.000216619 -0.0608964)
(0.0615482 0.000170065 -0.0791522)
(0.0478378 0.000284961 -0.098894)
(0.0233971 0.000300048 -0.096283)
(0.00802198 0.000297251 -0.0958769)
(0.0162427 0.0138888 -0.12943)
(0.0671664 0.0265052 -0.258823)
(0.0725583 0.0246949 -0.18135)
(0.0153609 0.0161198 -0.121172)
(0.00465761 0.00641117 -0.0994524)
(0.000328625 0.000246628 -0.0511736)
(0.0551976 8.70967e-05 -0.0655173)
(0.0488962 0.000156328 -0.0812654)
(0.0314917 0.000267072 -0.0907671)
(0.0138548 0.000273742 -0.082397)
(0.00467499 0.000318871 -0.0811625)
(0.00782313 0.012094 -0.0924105)
(0.0563876 0.0288277 -0.236149)
(0.0815686 0.0322171 -0.207233)
(0.035423 0.0290904 -0.132108)
(0.0108762 0.0170349 -0.0964023)
(0.00228126 0.00756411 -0.0842457)
(0.000215979 0.000282297 -0.0441695)
(0.0491752 3.27206e-05 -0.0548809)
(0.0472337 7.47193e-05 -0.0682533)
(0.0360529 0.00013273 -0.0788195)
(0.0203108 0.000218151 -0.0808151)
(0.00844551 0.000264702 -0.0708278)
(0.00295354 0.000351355 -0.0702793)
(0.00373212 0.00860349 -0.0646507)
(0.0424588 0.023564 -0.192092)
(0.0728152 0.0285666 -0.205008)
(0.0511558 0.0295761 -0.151228)
(0.0212829 0.0256058 -0.100525)
(0.00509728 0.0180565 -0.0813844)
(0.00180902 0.00875013 -0.073387)
(0.000135573 0.000364276 -0.0390036)
(0.0441106 2.54432e-05 -0.0573123)
(0.0379855 5.90712e-05 -0.0684942)
(0.0253821 9.62482e-05 -0.0734467)
(0.0130643 0.00017657 -0.071131)
(0.00541934 0.00026057 -0.0617197)
(0.00195963 0.000397275 -0.0621122)
(0.00153616 0.00540066 -0.044668)
(0.0285564 0.014942 -0.140685)
(0.0557961 0.01863 -0.170245)
(0.0513243 0.0198846 -0.142706)
(0.0289957 0.0203411 -0.101849)
(0.00914765 0.0213197 -0.0812306)
(0.00361713 0.018251 -0.0707177)
(0.00108202 0.0103474 -0.0657119)
(9.41769e-05 0.000551461 -0.0351824)
(0.0405224 8.80309e-06 -0.0487438)
(0.0377315 1.84005e-05 -0.0586386)
(0.0289553 4.01628e-05 -0.0662693)
(0.0174093 6.60992e-05 -0.0667553)
(0.0086077 0.000137513 -0.0628164)
(0.00362276 0.000258941 -0.0546832)
(0.00135636 0.000447379 -0.0559417)
(0.000481187 0.00304738 -0.030659)
(0.0172141 0.00739936 -0.0948889)
(0.0376004 0.00949666 -0.122209)
(0.0403187 0.00981159 -0.110688)
(0.0286203 0.0103096 -0.0824746)
(0.0114185 0.0124193 -0.0694703)
(0.00532401 0.0160119 -0.0651209)
(0.00198978 0.0173612 -0.0622065)
(0.000755463 0.0120558 -0.0605929)
(6.6414e-05 0.00100785 -0.0323872)
(0.0361681 5.74531e-06 -0.0502625)
(0.0307233 1.14906e-05 -0.0583779)
(0.0212139 2.48203e-05 -0.0622424)
(0.011931 4.08764e-05 -0.0601637)
(0.00583577 0.000100301 -0.0560826)
(0.00251221 0.000242518 -0.0493303)
(0.000965277 0.000472277 -0.0512095)
(0.00938469 0.00274843 -0.0596815)
(-0.000201563 0.00121607 -0.0176463)
(0.0226151 0.00366668 -0.0777608)
(0.0264748 0.00375611 -0.0729792)
(0.0216746 0.00373179 -0.0555554)
(0.0106366 0.00435058 -0.0450435)
(0.00530573 0.00625258 -0.0448805)
(0.00241216 0.010205 -0.0489492)
(0.0011996 0.0143404 -0.0533215)
(0.000449179 0.0131384 -0.0569841)
(5.17392e-05 0.00191526 -0.030399)
(0.0339315 1.22136e-06 -0.0431796)
(0.0309876 3.05606e-06 -0.0509388)
(0.0239471 6.09216e-06 -0.0565187)
(0.0152415 1.28946e-05 -0.0574755)
(0.00827948 2.09055e-05 -0.0543807)
(0.00407444 6.41047e-05 -0.0508375)
(0.00178854 0.000190573 -0.0453349)
(0.000700065 0.000464547 -0.0474748)
(0.0115262 0.000859228 -0.0420992)
(0.00326572 0.000493692 -0.0291457)
(-0.000150936 0.000405178 -0.00787722)
(0.0143245 0.000937652 -0.0397735)
(0.0126938 0.000954362 -0.0304761)
(0.00721336 0.000978128 -0.023664)
(0.00380919 0.00127216 -0.0214894)
(0.00176403 0.00222669 -0.0247708)
(0.00106948 0.00466024 -0.0309032)
(0.000539379 0.00901165 -0.0402719)
(0.000251024 0.011755 -0.0510681)
(4.30615e-05 0.0033219 -0.029001)
(0.0301643 3.29181e-07 -0.0441861)
(0.0254708 1.00892e-06 -0.0505031)
(0.0180986 1.78531e-06 -0.0535721)
(0.0109134 3.82209e-06 -0.0528055)
(0.00585624 5.82485e-06 -0.0496605)
(0.00291194 2.26776e-05 -0.0468796)
(0.00129617 7.45095e-05 -0.0424274)
(0.000510856 0.000222904 -0.0443839)
(0.00442122 2.35998e-05 -0.0124262)
(0.00292064 1.25876e-05 -0.0123479)
(0.000496885 4.73216e-05 -0.00743883)
(-6.39751e-05 3.24941e-05 -0.00164627)
(0.00412396 5.26994e-05 -0.00944766)
(0.00255301 4.98729e-05 -0.00713522)
(0.00142209 5.77026e-05 -0.00590222)
(0.000656649 8.41155e-05 -0.00611264)
(0.000388479 0.000200173 -0.00778468)
(0.000225808 0.00055741 -0.0111104)
(0.000143637 0.00154424 -0.0182159)
(8.15432e-05 0.00565252 -0.0320002)
(3.79246e-05 0.00244437 -0.0279385)
(0.205702 0.000121935 -0.184848)
(0.140176 0.000149502 -0.209394)
(0.175831 0.000601162 -0.386742)
(0.022562 0.000151725 -0.134941)
(0.111792 0.000166821 -0.120228)
(0.0600988 0.000209375 -0.180313)
(0.112635 0.00224135 -0.3364)
(0.0524563 0.00174925 -0.265643)
(0.00553595 0.000140487 -0.0968567)
(0.0673509 0.000222981 -0.12058)
(0.0308661 0.000210103 -0.144487)
(0.0625548 0.00625388 -0.223798)
(0.055059 0.00539998 -0.280699)
(0.0286606 0.00272641 -0.161068)
(0.00102372 0.000178995 -0.0750278)
(0.0668895 0.000239092 -0.100686)
(0.0411674 0.000231035 -0.111196)
(0.0146446 0.000232498 -0.116158)
(0.0333328 0.00964337 -0.167539)
(0.0649158 0.0131031 -0.262966)
(0.0471971 0.00829758 -0.167375)
(0.005193 0.00442907 -0.121883)
(0.000606392 0.0001689 -0.0608284)
(0.0615475 0.000160904 -0.0791955)
(0.0478207 0.000248878 -0.0989342)
(0.0233757 0.000244515 -0.0963192)
(0.0080015 0.000225371 -0.0958498)
(0.0159124 0.0116152 -0.126757)
(0.065492 0.0212421 -0.254149)
(0.0697178 0.0191862 -0.178449)
(0.0140588 0.0125527 -0.120429)
(0.00422042 0.00497896 -0.0991307)
(0.000319524 0.000191163 -0.0511081)
(0.055198 9.16496e-05 -0.0655371)
(0.0488894 0.000155237 -0.0813057)
(0.0314753 0.000243724 -0.0908083)
(0.0138372 0.000225834 -0.0824366)
(0.00466271 0.000242024 -0.0811438)
(0.00770155 0.0114784 -0.0929138)
(0.0553112 0.0261441 -0.234891)
(0.0796806 0.0285779 -0.20434)
(0.0338309 0.0250388 -0.129303)
(0.0100733 0.0136676 -0.0956141)
(0.00208937 0.0059456 -0.083875)
(0.000209323 0.000210999 -0.0441039)
(0.0491753 3.83274e-05 -0.0548885)
(0.0472317 8.28103e-05 -0.0682698)
(0.0360465 0.000138742 -0.0788541)
(0.0202982 0.000208034 -0.0808529)
(0.00843544 0.000221126 -0.0708769)
(0.0029449 0.000266682 -0.0702705)
(0.00392329 0.00943562 -0.069081)
(0.0435381 0.0249778 -0.201101)
(0.0742197 0.0299313 -0.2119)
(0.0521034 0.0301253 -0.153304)
(0.021101 0.0238792 -0.0994841)
(0.00484153 0.0150711 -0.0805361)
(0.0017033 0.00682766 -0.0728691)
(0.000130879 0.000252773 -0.0389377)
(0.0441103 3.16734e-05 -0.0573181)
(0.0379836 6.90427e-05 -0.0685067)
(0.0253772 0.000106827 -0.0734725)
(0.0130576 0.000177085 -0.0711688)
(0.00541305 0.000220811 -0.0617789)
(0.00195338 0.000306818 -0.0621279)
(0.00184017 0.00686699 -0.0515475)
(0.0321086 0.0190264 -0.160142)
(0.0615663 0.0235808 -0.191051)
(0.0564593 0.0246643 -0.157601)
(0.0314209 0.0234679 -0.108742)
(0.00955489 0.0217389 -0.0822321)
(0.00357111 0.0159322 -0.0699595)
(0.00102462 0.00808878 -0.064872)
(8.98697e-05 0.000330168 -0.035115)
(0.0405224 1.19537e-05 -0.0487452)
(0.0377311 2.4462e-05 -0.0586427)
(0.0289538 5.01954e-05 -0.0662772)
(0.0174068 7.896e-05 -0.0667745)
(0.0086042 0.000147176 -0.0628542)
(0.00361876 0.000227194 -0.0547519)
(0.00135153 0.000355905 -0.0560225)
(0.000744403 0.00452066 -0.038407)
(0.0219057 0.0117724 -0.119407)
(0.0463466 0.0148924 -0.152162)
(0.0490374 0.0152524 -0.136279)
(0.0342305 0.0152144 -0.0997531)
(0.0134 0.0166229 -0.0794005)
(0.00587999 0.0183597 -0.0690651)
(0.00203671 0.0165079 -0.06223)
(0.000727539 0.00959601 -0.0592829)
(6.12764e-05 0.000508195 -0.0323159)
(0.036168 8.60912e-06 -0.0502633)
(0.0307231 1.67659e-05 -0.0583802)
(0.0212132 3.40832e-05 -0.0622471)
(0.0119299 5.46468e-05 -0.0601773)
(0.00583406 0.000119451 -0.0561191)
(0.00250956 0.000232085 -0.0494067)
(0.000961524 0.000410187 -0.0514485)
(0.0138211 0.00586929 -0.0844112)
(-6.9568e-05 0.00223415 -0.0244604)
(0.0319184 0.00757617 -0.109642)
(0.0366032 0.00765744 -0.102207)
(0.029402 0.0073545 -0.0773716)
(0.0142724 0.00811631 -0.0609495)
(0.00682359 0.0103963 -0.0572207)
(0.00292346 0.0142208 -0.0569727)
(0.00132351 0.0158639 -0.0558742)
(0.000435582 0.0112757 -0.0557426)
(4.44206e-05 0.000944837 -0.0303203)
(0.0339315 2.45466e-06 -0.0431798)
(0.0309876 5.53323e-06 -0.0509393)
(0.023947 1.04864e-05 -0.0565199)
(0.0152411 2.07549e-05 -0.0574779)
(0.00827905 3.50743e-05 -0.0543893)
(0.00407365 8.95815e-05 -0.0508686)
(0.00178692 0.000222634 -0.0454083)
(0.000697456 0.000441911 -0.0479823)
(0.0198979 0.00289938 -0.071983)